# vtk DataFile Version 3.0
    
ASCII
DATASET UNSTRUCTURED_GRID
POINTS 142 float
0 0 0
1 0 0
1 1 0
0 1 0
0.1 0 0
0.2 0 0
0.3 0 0
0.4 0 0
0.5 0 0
0.6 0 0
0.7 0 0
0.8 0 0
0.9 0 0
1 0.1 0
1 0.2 0
1 0.3 0
1 0.4 0
1 0.5 0
1 0.6 0
1 0.7 0
1 0.8 0
1 0.9 0
0.9 1 0
0.8 1 0
0.7 1 0
0.6 1 0
0.5 1 0
0.4 1 0
0.3 1 0
0.2 1 0
0.1 1 0
0 0.9 0
0 0.8 0
0 0.7 0
0 0.6 0
0 0.5 0
0 0.4 0
0 0.3 0
0 0.2 0
0 0.1 0
0.5 0.5 0
0.707143 0.707143 0
0.292857 0.707143 0
0.707143 0.292857 0
0.292857 0.292857 0
0.497 0.78488 0
0.21512 0.497 0
0.78488 0.503 0
0.503 0.21512 0
0.829497 0.829497 0
0.170503 0.829497 0
0.829497 0.170503 0
0.170503 0.170503 0
0.64071 0.848866 0
0.151134 0.64071 0
0.359205 0.848175 0
0.848175 0.640795 0
0.848866 0.35929 0
0.151825 0.359205 0
0.35929 0.151134 0
0.640795 0.151825 0
0.566986 0.640157 0
0.363936 0.572011 0
0.640157 0.433014 0
0.431769 0.356433 0
0.431587 0.659528 0
0.666173 0.558699 0
0.345738 0.434531 0
0.558699 0.333827 0
0.460465 0.890324 0
0.109676 0.460465 0
0.890324 0.539535 0
0.539535 0.109676 0
0.739074 0.902335 0
0.0976651 0.739074 0
0.902335 0.260926 0
0.260926 0.0976651 0
0.900559 0.740305 0
0.259695 0.900559 0
0.740305 0.0994409 0
0.0994409 0.259695 0
0.604121 0.745283 0
0.255748 0.607779 0
0.745283 0.395879 0
0.395879 0.254717 0
0.393407 0.746481 0
0.747312 0.605379 0
0.254177 0.393775 0
0.605379 0.252688 0
0.900122 0.900122 0
0.0998781 0.900122 0
0.900122 0.0998781 0
0.0998781 0.0998781 0
0.56908 0.916779 0
0.0832208 0.56908 0
0.916779 0.43092 0
0.43092 0.0832208 0
0.793413 0.720731 0
0.279067 0.793275 0
0.720731 0.206587 0
0.206835 0.279128 0
0.727794 0.801265 0
0.198735 0.727794 0
0.801265 0.272206 0
0.272206 0.198735 0
0.487185 0.589351 0
0.580327 0.541124 0
0.409677 0.491135 0
0.554918 0.426801 0
0.650232 0.640017 0
0.353859 0.654371 0
0.642499 0.348048 0
0.347016 0.354627 0
0.649773 0.933596 0
0.066404 0.649773 0
0.933596 0.350227 0
0.350227 0.066404 0
0.927812 0.644127 0
0.644127 0.0721883 0
0.355873 0.927812 0
0.0721883 0.355873 0
0.820102 0.920029 0
0.0799714 0.820102 0
0.920029 0.179898 0
0.179898 0.0799714 0
0.920029 0.820102 0
0.820102 0.0799714 0
0.179898 0.920029 0
0.0799714 0.179898 0
0.507721 0.698509 0
0.302103 0.508689 0
0.712239 0.495415 0
0.495238 0.287274 0
0.554275 0.837226 0
0.166875 0.55907 0
0.837226 0.445725 0
0.445725 0.162774 0
0.427519 0.817465 0
0.182699 0.427611 0
0.817673 0.572177 0
0.572177 0.182327 0
0.461024 0.432542 0
CELLS 242 968
3 108 141 68
3 1 13 91
3 0 4 92
3 2 22 89
3 3 31 90
3 1 91 12
3 0 92 39
3 2 89 21
3 3 90 30
3 68 141 64
3 65 129 85
3 66 131 86
3 67 130 87
3 68 132 88
3 62 107 105
3 62 105 65
3 63 106 108
3 63 66 106
3 129 45 85
3 130 46 87
3 131 47 86
3 132 48 88
3 54 82 102
3 53 81 101
3 59 84 104
3 57 83 103
3 42 102 82
3 41 101 81
3 44 104 84
3 43 103 83
3 56 97 86
3 55 98 85
3 60 99 88
3 58 100 87
3 64 141 67
3 26 27 69
3 35 36 70
3 17 18 71
3 8 9 72
3 18 117 71
3 9 118 72
3 27 119 69
3 36 120 70
3 63 131 66
3 64 132 68
3 41 86 97
3 42 85 98
3 43 88 99
3 44 87 100
3 62 65 110
3 64 67 112
3 67 141 107
3 40 105 107
3 40 108 106
3 56 71 117
3 60 72 118
3 55 69 119
3 58 70 120
3 23 24 73
3 32 33 74
3 14 15 75
3 5 6 76
3 19 20 77
3 10 11 79
3 28 29 78
3 37 38 80
3 26 69 93
3 35 70 94
3 17 71 95
3 8 72 96
3 56 77 97
3 55 78 98
3 60 79 99
3 58 80 100
3 45 133 69
3 46 134 70
3 47 135 71
3 48 136 72
3 61 109 81
3 62 110 82
3 63 111 83
3 64 112 84
3 49 73 101
3 50 74 102
3 51 75 103
3 52 76 104
3 41 81 109
3 42 82 110
3 43 83 111
3 44 84 112
3 61 106 109
3 66 109 106
3 63 108 111
3 68 111 108
3 25 26 93
3 34 35 94
3 16 17 95
3 7 8 96
3 45 137 85
3 47 139 86
3 46 138 87
3 48 140 88
3 23 73 121
3 32 74 122
3 14 75 123
3 5 76 124
3 20 125 77
3 11 126 79
3 29 127 78
3 38 128 80
3 54 102 74
3 53 101 73
3 59 104 76
3 57 103 75
3 49 97 77
3 50 98 78
3 51 99 79
3 52 100 80
3 13 14 123
3 22 23 121
3 4 5 124
3 31 32 122
3 20 21 125
3 11 12 126
3 29 30 127
3 38 39 128
3 69 133 93
3 70 134 94
3 71 135 95
3 72 136 96
3 13 123 91
3 4 124 92
3 22 121 89
3 31 122 90
3 21 89 125
3 12 91 126
3 30 90 127
3 39 92 128
3 49 101 97
3 50 102 98
3 51 103 99
3 52 104 100
3 61 81 129
3 62 82 130
3 63 83 131
3 64 84 132
3 45 69 137
3 46 70 138
3 55 137 69
3 58 138 70
3 47 71 139
3 48 72 140
3 56 139 71
3 60 140 72
3 24 113 73
3 33 114 74
3 55 119 78
3 53 73 113
3 54 74 114
3 56 117 77
3 58 120 80
3 60 118 79
3 28 78 119
3 19 77 117
3 37 80 120
3 10 79 118
3 15 115 75
3 6 116 76
3 57 75 115
3 59 76 116
3 45 129 81
3 46 130 82
3 47 131 83
3 48 132 84
3 61 129 105
3 65 105 129
3 62 130 107
3 67 107 130
3 49 121 73
3 50 122 74
3 49 77 125
3 51 123 75
3 50 78 127
3 52 124 76
3 51 79 126
3 52 80 128
3 53 133 81
3 45 81 133
3 54 134 82
3 46 82 134
3 47 83 135
3 57 135 83
3 59 136 84
3 48 84 136
3 65 85 110
3 42 110 85
3 66 86 109
3 41 109 86
3 67 87 112
3 68 88 111
3 44 112 87
3 43 111 88
3 41 97 101
3 42 98 102
3 43 99 103
3 44 100 104
3 49 89 121
3 50 90 122
3 49 125 89
3 50 127 90
3 51 91 123
3 51 126 91
3 52 92 124
3 52 128 92
3 40 106 105
3 61 105 106
3 25 93 113
3 34 94 114
3 53 113 93
3 54 114 94
3 16 95 115
3 7 96 116
3 57 115 95
3 59 116 96
3 24 25 113
3 33 34 114
3 15 16 115
3 6 7 116
3 18 19 117
3 9 10 118
3 27 28 119
3 36 37 120
3 55 85 137
3 56 86 139
3 58 87 138
3 60 88 140
3 53 93 133
3 54 94 134
3 57 95 135
3 59 96 136
3 40 141 108
3 40 107 141
CELL_TYPES 242
5
5
5
5
5
5
5
5
5
5
5
5
5
5
5
5
5
5
5
5
5
5
5
5
5
5
5
5
5
5
5
5
5
5
5
5
5
5
5
5
5
5
5
5
5
5
5
5
5
5
5
5
5
5
5
5
5
5
5
5
5
5
5
5
5
5
5
5
5
5
5
5
5
5
5
5
5
5
5
5
5
5
5
5
5
5
5
5
5
5
5
5
5
5
5
5
5
5
5
5
5
5
5
5
5
5
5
5
5
5
5
5
5
5
5
5
5
5
5
5
5
5
5
5
5
5
5
5
5
5
5
5
5
5
5
5
5
5
5
5
5
5
5
5
5
5
5
5
5
5
5
5
5
5
5
5
5
5
5
5
5
5
5
5
5
5
5
5
5
5
5
5
5
5
5
5
5
5
5
5
5
5
5
5
5
5
5
5
5
5
5
5
5
5
5
5
5
5
5
5
5
5
5
5
5
5
5
5
5
5
5
5
5
5
5
5
5
5
5
5
5
5
5
5
5
5
5
5
5
5
5
5
5
5
5
5
5
5
5
5
5
5
POINT_DATA 142
VECTORS displacement double
0.00000028625001544847 0.00000030436651960662 0.00000000000000000000
0.00000356461686128163 -0.00000353554412569489 0.00000000000000000000
0.99998970797237496377 -0.00000642386434560572 0.00000000000000000000
0.00000644789853733973 -0.00000257564802448899 0.00000000000000000000
0.00000226249102431703 0.00000322791398102761 0.00000000000000000000
0.00000235353647839809 0.00000353256360182685 0.00000000000000000000
0.00000315175562260570 0.00000430884900666220 0.00000000000000000000
0.00000336366710051535 0.00000434515731798160 0.00000000000000000000
0.00000369656780875013 0.00000465765150685185 0.00000000000000000000
0.00000452591100971686 0.00000440363654097126 0.00000000000000000000
0.00000453646343354968 0.00000440080326420231 0.00000000000000000000
0.00000508995700461445 0.00000325351281508973 0.00000000000000000000
0.00000642955480015564 0.00000427516507659293 0.00000000000000000000
0.09999543614185116280 -0.00000665806357889783 0.00000000000000000000
0.19999623529970028679 -0.00000525520870373045 0.00000000000000000000
0.29999471778609165806 -0.00000492023859246581 0.00000000000000000000
0.39999415037332369804 -0.00000498716808963270 0.00000000000000000000
0.49999328902595013835 -0.00000458407786549572 0.00000000000000000000
0.59999238713602276452 -0.00000486840423667414 0.00000000000000000000
0.69999171818547922808 -0.00000488118135855167 0.00000000000000000000
0.79999076546066483218 -0.00000547016279603642 0.00000000000000000000
0.89998930458795101117 -0.00000587576045168396 0.00000000000000000000
0.89999534556854643430 -0.00000228339791986685 0.00000000000000000000
0.79999446569727139522 -0.00000229760390691427 0.00000000000000000000
0.69999551731138498489 -0.00000143347411374861 0.00000000000000000000
0.59999565933448673061 -0.00000142343318479057 0.00000000000000000000
0.49999598936368355728 -0.00000111883379706808 0.00000000000000000000
0.39999688923561393938 -0.00000133409141303683 0.00000000000000000000
0.29999664148320670520 -0.00000150129193193452 0.00000000000000000000
0.19999816288264907205 -0.00000203658208141939 0.00000000000000000000
0.09999590886408181445 -0.00000329411947414402 0.00000000000000000000
0.00001172769045065899 0.00000283721770905230 0.00000000000000000000
0.00000893161877985404 0.00000196083554222188 0.00000000000000000000
0.00000836900679349860 0.00000291269691932456 0.00000000000000000000
0.00000755953055085014 0.00000266123768490619 0.00000000000000000000
0.00000676070416003195 0.00000313005926802041 0.00000000000000000000
0.00000583841099366301 0.00000281071546145486 0.00000000000000000000
0.00000524861936510674 0.00000284544253738419 0.00000000000000000000
0.00000402626555877671 0.00000216133328761748 0.00000000000000000000
0.00000353777487482057 0.00000207747717542012 0.00000000000000000000
0.25107433831299286187 0.09129317805435276101 0.00000000000000000000
0.50757646190156369137 0.06440624047488176240 0.00000000000000000000
0.19961189894268469014 0.06419826300650161022 0.00000000000000000000
0.19932478522516564046 0.06452353835703469875 0.00000000000000000000
0.09307803261446638554 0.06410418055740700616 0.00000000000000000000
0.38991489426661962714 0.06077245154765107543 0.00000000000000000000
0.10721831726425400111 0.06391404493540603360 0.00000000000000000000
0.39512349627953741171 0.06357905931973138747 0.00000000000000000000
0.10799093131509256149 0.06089283180519668159 0.00000000000000000000
0.69904587758342562331 0.03501728014281563217 0.00000000000000000000
0.13034023712019043861 0.03506838625178312213 0.00000000000000000000
0.13031216403974182905 0.03505830136160887484 0.00000000000000000000
0.04000831847695632271 0.03504063922919380819 0.00000000000000000000
0.55011652120423426560 0.04379571486060603036 0.00000000000000000000
0.09083945899279663450 0.04658851768425783385 0.00000000000000000000
0.29832573211445639894 0.04408891466907875756 0.00000000000000000000
0.54937329093909270661 0.04653968086293411993 0.00000000000000000000
0.29918023818434186234 0.04639227508067652467 0.00000000000000000000
0.06062156578383746941 0.04677307034598909147 0.00000000000000000000
0.06045633466595420891 0.04365413388053635685 0.00000000000000000000
0.09091698698567599046 0.04414624866717054008 0.00000000000000000000
0.36516561225250826483 0.08217999627790130435 0.00000000000000000000
0.20618169088815854750 0.08395487531591390440 0.00000000000000000000
0.27469583028858557405 0.08283455140736785405 0.00000000000000000000
0.15529333661305322334 0.08234293660633633383 0.00000000000000000000
0.28240932510532412714 0.08106519775921902649 0.00000000000000000000
0.37421601212393168501 0.08001519111284731423 0.00000000000000000000
0.15313975505081528494 0.08288110644289635454 0.00000000000000000000
0.18451626936912932098 0.08007552530039822869 0.00000000000000000000
0.40871004766888430204 0.03475223687584873267 0.00000000000000000000
0.05177233675746639729 0.03818439346776682231 0.00000000000000000000
0.48162984187413954151 0.03809593993194292094 0.00000000000000000000
0.05792159948550330145 0.03477815592198866407 0.00000000000000000000
0.67470693386032676298 0.02769516775579455165 0.00000000000000000000
0.06479951883827726744 0.02931916076855187181 0.00000000000000000000
0.22811038267712802075 0.02923043094699697905 0.00000000000000000000
0.03322010184555574536 0.02762173222383527624 0.00000000000000000000
0.67420036972142960430 0.02957067524082746326 0.00000000000000000000
0.22587313101060588205 0.02801983897428960216 0.00000000000000000000
0.06558086203015271731 0.02806811777708387301 0.00000000000000000000
0.03341390824046355096 0.02968958524656065828 0.00000000000000000000
0.45508410947743649366 0.06749018353216447441 0.00000000000000000000
0.15072099228413415872 0.06952281382104427698 0.00000000000000000000
0.29088039007233612576 0.06922276226394985521 0.00000000000000000000
0.10546782639384383318 0.06711012331155241650 0.00000000000000000000
0.28878141460117423556 0.06695880058572076243 0.00000000000000000000
0.45655721808157190278 0.06844142879722472927 0.00000000000000000000
0.10479051066723475694 0.06934216080895518053 0.00000000000000000000
0.14813341186862635790 0.06686535915910871153 0.00000000000000000000
0.81874830550708732613 0.01714839261428289033 0.00000000000000000000
0.08132611573706585717 0.01718263796857966152 0.00000000000000000000
0.08131243776436034021 0.01717699497655794313 0.00000000000000000000
0.01849634403856726186 0.01716107011438431154 0.00000000000000000000
0.52416784445937958381 0.02661850437217894855 0.00000000000000000000
0.04533572925567902479 0.02913896876505329622 0.00000000000000000000
0.39300791498949627645 0.02911912812860883298 0.00000000000000000000
0.03832210426268998354 0.02660368922532382191 0.00000000000000000000
0.58051668385653421023 0.05203714706101007781 0.00000000000000000000
0.21212792773536764956 0.05088949160857195869 0.00000000000000000000
0.13957924059058693378 0.05100841933104608567 0.00000000000000000000
0.06648604484806751314 0.05222371480891262879 0.00000000000000000000
0.59262904565709528804 0.04894787607299904558 0.00000000000000000000
0.13579959928704540828 0.05030816849645144972 0.00000000000000000000
0.20930143699589845441 0.05024292378564881173 0.00000000000000000000
0.06339906713061722876 0.04878023432456950886 0.00000000000000000000
0.28667862865319015953 0.08893186548478969333 0.00000000000000000000
0.31520866372997730087 0.08926092763864600099 0.00000000000000000000
0.20130346458574530089 0.08985783521534683460 0.00000000000000000000
0.23466837874719162493 0.08761713769604391466 0.00000000000000000000
0.42035482269442092651 0.07781968936102641454 0.00000000000000000000
0.22727870482564019317 0.07615781684310157784 0.00000000000000000000
0.21940522375614535111 0.07779170997543327637 0.00000000000000000000
0.12720983002546740193 0.07631798308543573384 0.00000000000000000000
0.61023850591979345026 0.02038140999184024499 0.00000000000000000000
0.03969939877930087069 0.02220517639521714381 0.00000000000000000000
0.32357198165236816800 0.02215336635033764850 0.00000000000000000000
0.02684983030917850039 0.02033956852841672935 0.00000000000000000000
0.60118534345154373000 0.02400333510044911148 0.00000000000000000000
0.04264479506481632515 0.02214776642645314986 0.00000000000000000000
0.32633738742400492105 0.02212187041852632999 0.00000000000000000000
0.02933640629148037346 0.02408681798653856260 0.00000000000000000000
0.76201463034469008040 0.01876961615360046506 0.00000000000000000000
0.05865673109834988047 0.01978368450845004872 0.00000000000000000000
0.15858750868167395542 0.01974467855699845939 0.00000000000000000000
0.02184590587655480323 0.01875803289856044914 0.00000000000000000000
0.76147072749634092670 0.01978782359926482132 0.00000000000000000000
0.05795485308697123639 0.01885305205215986879 0.00000000000000000000
0.15790438582102492293 0.01884283365678329075 0.00000000000000000000
0.02135981744319225342 0.01984341250775418022 0.00000000000000000000
0.35539956383278359375 0.07663096067673035028 0.00000000000000000000
0.15324395500724083408 0.07897719642990319588 0.00000000000000000000
0.35280273227863545582 0.07563432005643407063 0.00000000000000000000
0.14247031592999903626 0.07422696812300166869 0.00000000000000000000
0.46672667370598208691 0.04833912166362335644 0.00000000000000000000
0.09083100129724244742 0.05257589127388163225 0.00000000000000000000
0.37103803057593143233 0.05146841047977002842 0.00000000000000000000
0.07524105836378246204 0.04829486954665623832 0.00000000000000000000
0.34565111772431039716 0.05250312008661052465 0.00000000000000000000
0.08105580073419396681 0.05562640431669803320 0.00000000000000000000
0.47061121677316469780 0.05526652479542231572 0.00000000000000000000
0.10046579502744183710 0.05251839827588741794 0.00000000000000000000
0.19984425713259260093 0.08986768118142175743 0.00000000000000000000
