# vtk DataFile Version 3.0
    
ASCII
DATASET UNSTRUCTURED_GRID
POINTS 568 float
0 0 0
1 0 0
1 1 0
0 1 0
0.05 0 0
0.1 0 0
0.15 0 0
0.2 0 0
0.25 0 0
0.3 0 0
0.35 0 0
0.4 0 0
0.45 0 0
0.5 0 0
0.55 0 0
0.6 0 0
0.65 0 0
0.7 0 0
0.75 0 0
0.8 0 0
0.85 0 0
0.9 0 0
0.95 0 0
1 0.05 0
1 0.1 0
1 0.15 0
1 0.2 0
1 0.25 0
1 0.3 0
1 0.35 0
1 0.4 0
1 0.45 0
1 0.5 0
1 0.55 0
1 0.6 0
1 0.65 0
1 0.7 0
1 0.75 0
1 0.8 0
1 0.85 0
1 0.9 0
1 0.95 0
0.95 1 0
0.9 1 0
0.85 1 0
0.8 1 0
0.75 1 0
0.7 1 0
0.65 1 0
0.6 1 0
0.55 1 0
0.5 1 0
0.45 1 0
0.4 1 0
0.35 1 0
0.3 1 0
0.25 1 0
0.2 1 0
0.15 1 0
0.1 1 0
0.05 1 0
0 0.95 0
0 0.9 0
0 0.85 0
0 0.8 0
0 0.75 0
0 0.7 0
0 0.65 0
0 0.6 0
0 0.55 0
0 0.5 0
0 0.45 0
0 0.4 0
0 0.35 0
0 0.3 0
0 0.25 0
0 0.2 0
0 0.15 0
0 0.1 0
0 0.05 0
0.50334 0.501197 0
0.702521 0.703589 0
0.296411 0.702521 0
0.703589 0.297479 0
0.297479 0.296411 0
0.5 0.780314 0
0.219686 0.5 0
0.780314 0.5 0
0.5 0.219686 0
0.828981 0.828981 0
0.171019 0.828981 0
0.831998 0.169013 0
0.169013 0.168002 0
0.565665 0.636705 0
0.359843 0.566986 0
0.640157 0.433014 0
0.433014 0.359843 0
0.639693 0.845985 0
0.154015 0.639693 0
0.845985 0.360307 0
0.360307 0.154015 0
0.845985 0.639693 0
0.360307 0.845985 0
0.639693 0.154015 0
0.154015 0.360307 0
0.443459 0.666416 0
0.665486 0.556167 0
0.333827 0.441301 0
0.558699 0.333827 0
0.534321 0.885632 0
0.114368 0.534321 0
0.885611 0.465728 0
0.465679 0.114368 0
0.741988 0.908927 0
0.0910728 0.741988 0
0.89586 0.257146 0
0.257146 0.10414 0
0.889491 0.736946 0
0.736882 0.110478 0
0.263054 0.889491 0
0.110478 0.263118 0
0.598195 0.74381 0
0.25619 0.598195 0
0.74381 0.401805 0
0.401805 0.25619 0
0.744174 0.60492 0
0.39508 0.744174 0
0.60492 0.255826 0
0.255826 0.39508 0
0.90045 0.902009 0
0.900828 0.0980768 0
0.097991 0.90045 0
0.0980768 0.0991724 0
0.435907 0.902899 0
0.097101 0.435907 0
0.902899 0.564093 0
0.564093 0.097101 0
0.739828 0.796296 0
0.203704 0.739828 0
0.796296 0.260172 0
0.260172 0.203704 0
0.779985 0.713973 0
0.286027 0.779985 0
0.713973 0.220015 0
0.220015 0.286027 0
0.491891 0.590243 0
0.573876 0.543184 0
0.410096 0.490839 0
0.549016 0.423065 0
0.651952 0.642499 0
0.359449 0.651648 0
0.642499 0.348048 0
0.348048 0.357501 0
0.817096 0.913187 0
0.086813 0.817096 0
0.918388 0.181726 0
0.181726 0.081612 0
0.918388 0.818274 0
0.821181 0.0828751 0
0.181726 0.918388 0
0.0828751 0.178819 0
0.514843 0.697072 0
0.302928 0.514843 0
0.700151 0.484819 0
0.483789 0.297452 0
0.609384 0.918475 0
0.0815251 0.609384 0
0.918901 0.390947 0
0.390616 0.0815251 0
0.926703 0.65773 0
0.65773 0.0732968 0
0.34227 0.926703 0
0.0732968 0.34227 0
0.430871 0.821542 0
0.821542 0.569129 0
0.178458 0.430871 0
0.569129 0.178458 0
0.461024 0.432542 0
0.567593 0.817943 0
0.182057 0.567593 0
0.817943 0.432407 0
0.432407 0.182057 0
0.668203 0.777698 0
0.222302 0.668203 0
0.777698 0.331797 0
0.331797 0.222302 0
0.677573 0.931062 0
0.0689379 0.677573 0
0.931062 0.322427 0
0.322427 0.0689379 0
0.435653 0.551594 0
0.589811 0.481409 0
0.498543 0.370759 0
0.447649 0.737524 0
0.737524 0.552351 0
0.262476 0.447649 0
0.551756 0.261045 0
0.394199 0.419122 0
0.486698 0.935107 0
0.0648933 0.486698 0
0.935107 0.513302 0
0.513302 0.0648933 0
0.406535 0.615806 0
0.497717 0.839987 0
0.160013 0.497717 0
0.839986 0.502285 0
0.502283 0.160013 0
0.700857 0.843504 0
0.156496 0.700857 0
0.843504 0.299143 0
0.299143 0.156496 0
0.839909 0.771061 0
0.228939 0.839909 0
0.772163 0.158997 0
0.158997 0.227837 0
0.763958 0.678082 0
0.321918 0.763958 0
0.678082 0.236042 0
0.236042 0.321918 0
0.645186 0.696016 0
0.304216 0.645149 0
0.696016 0.354814 0
0.354814 0.303984 0
0.612335 0.608467 0
0.601224 0.390978 0
0.939469 0.604854 0
0.604854 0.0605305 0
0.395146 0.939469 0
0.0605305 0.395146 0
0.644552 0.503693 0
0.941566 0.0584335 0
0.0584335 0.0584335 0
0.941566 0.941566 0
0.0584335 0.941566 0
0.77689 0.947062 0
0.052938 0.77689 0
0.944656 0.231675 0
0.231675 0.0553438 0
0.944208 0.767774 0
0.765434 0.0564522 0
0.232226 0.944208 0
0.0564522 0.234566 0
0.782849 0.837463 0
0.162537 0.782849 0
0.845341 0.226264 0
0.226264 0.154659 0
0.553072 0.948198 0
0.0518019 0.553072 0
0.948128 0.447089 0
0.446928 0.0518019 0
0.856075 0.693805 0
0.693799 0.143922 0
0.306195 0.856075 0
0.143922 0.306201 0
0.511725 0.640158 0
0.358157 0.511134 0
0.570512 0.696687 0
0.304297 0.569139 0
0.695958 0.43071 0
0.430595 0.30396 0
0.544655 0.74718 0
0.252871 0.544584 0
0.747302 0.455391 0
0.455331 0.252569 0
0.866964 0.947531 0
0.052469 0.866964 0
0.941004 0.138357 0
0.138357 0.0589959 0
0.940959 0.861653 0
0.865893 0.0548727 0
0.138347 0.940959 0
0.0548727 0.134107 0
0.692886 0.612047 0
0.386424 0.692863 0
0.612047 0.307114 0
0.305977 0.393468 0
0.582671 0.870133 0
0.129867 0.582671 0
0.870127 0.417439 0
0.417329 0.129867 0
0.749179 0.7423 0
0.2577 0.749179 0
0.7423 0.250821 0
0.250821 0.2577 0
0.618966 0.795216 0
0.204784 0.618966 0
0.795216 0.381034 0
0.381034 0.204784 0
0.94636 0.712092 0
0.711749 0.0537302 0
0.287908 0.94636 0
0.0537302 0.288251 0
0.851749 0.877052 0
0.122948 0.851749 0
0.851749 0.122948 0
0.122948 0.148251 0
0.530873 0.552993 0
0.38703 0.802831 0
0.802831 0.61297 0
0.197169 0.38703 0
0.61297 0.197169 0
0.794225 0.796409 0
0.203591 0.794225 0
0.800275 0.205967 0
0.205967 0.199725 0
0.715189 0.656794 0
0.342703 0.716724 0
0.656794 0.284811 0
0.284738 0.343558 0
0.378392 0.890647 0
0.890647 0.621608 0
0.109353 0.378392 0
0.621608 0.109353 0
0.535424 0.601199 0
0.507538 0.450656 0
0.808479 0.672081 0
0.327919 0.808479 0
0.672081 0.191521 0
0.191521 0.327919 0
0.452937 0.514948 0
0.608791 0.665924 0
0.332315 0.607792 0
0.663469 0.391531 0
0.391209 0.334076 0
0.876603 0.810413 0
0.189587 0.876603 0
0.669233 0.880408 0
0.119592 0.669233 0
0.880408 0.330767 0
0.330767 0.119592 0
0.440061 0.956387 0
0.0436128 0.440061 0
0.956387 0.559939 0
0.559939 0.0436128 0
0.811032 0.125875 0
0.125875 0.188968 0
0.55417 0.509224 0
0.487581 0.890801 0
0.109199 0.487581 0
0.890798 0.512425 0
0.512419 0.109199 0
0.433068 0.780312 0
0.780312 0.566932 0
0.219688 0.433068 0
0.566833 0.21945 0
0.717892 0.951367 0
0.0486329 0.717892 0
0.949157 0.283208 0
0.283208 0.0508433 0
0.455175 0.627431 0
0.873558 0.18922 0
0.18922 0.126442 0
0.637538 0.955782 0
0.0442184 0.637538 0
0.955813 0.362487 0
0.362462 0.0442184 0
0.618669 0.554923 0
0.377024 0.458194 0
0.593134 0.43977 0
0.547156 0.37829 0
0.889623 0.853117 0
0.146883 0.889623 0
0.887779 0.148476 0
0.148476 0.112221 0
0.780204 0.887683 0
0.112317 0.780204 0
0.711597 0.75039 0
0.24961 0.711597 0
0.75039 0.288403 0
0.288403 0.24961 0
0.826759 0.956111 0
0.0438895 0.826759 0
0.96081 0.180352 0
0.180352 0.0391903 0
0.960711 0.81954 0
0.820502 0.03884 0
0.18046 0.960711 0
0.03884 0.179498 0
0.354814 0.40313 0
0.399828 0.534628 0
0.472532 0.340817 0
0.514915 0.332674 0
0.479748 0.548727 0
0.423403 0.447621 0
0.490731 0.73759 0
0.467369 0.700155 0
0.262418 0.490719 0
0.299887 0.467007 0
0.697984 0.528973 0
0.738151 0.506971 0
0.507328 0.261312 0
0.328946 0.967797 0
0.0322209 0.329015 0
0.967797 0.671054 0
0.670985 0.0322209 0
0.461527 0.473444 0
0.465432 0.387884 0
0.575781 0.777517 0
0.222487 0.575775 0
0.777526 0.424223 0
0.424218 0.222465 0
0.883965 0.66252 0
0.33748 0.883965 0
0.662519 0.116034 0
0.116034 0.337481 0
0.655016 0.594528 0
0.595962 0.346094 0
0.895561 0.217206 0
0.217206 0.104439 0
0.54048 0.843335 0
0.156665 0.54048 0
0.843332 0.459537 0
0.45952 0.156665 0
0.593144 0.95886 0
0.0411399 0.593144 0
0.95886 0.406856 0
0.406856 0.0411399 0
0.453539 0.855515 0
0.144485 0.453539 0
0.855515 0.546462 0
0.546461 0.144485 0
0.404815 0.851304 0
0.851304 0.595186 0
0.148696 0.404815 0
0.595185 0.148696 0
0.392221 0.380678 0
0.904145 0.778689 0
0.221311 0.904145 0
0.6633 0.46626 0
0.642037 0.743165 0
0.256845 0.642036 0
0.743165 0.357963 0
0.357963 0.256835 0
0.547839 0.466402 0
0.77926 0.0996948 0
0.0996948 0.22074 0
0.624838 0.878082 0
0.121918 0.624838 0
0.878152 0.375235 0
0.375162 0.121918 0
0.962667 0.484951 0
0.484924 0.0373214 0
0.515076 0.962679 0
0.0373214 0.515076 0
0.669198 0.818209 0
0.181791 0.669198 0
0.818209 0.330802 0
0.330802 0.181791 0
0.900519 0.692619 0
0.692536 0.0994921 0
0.307381 0.900519 0
0.0994921 0.307464 0
0.959942 0.0944579 0
0.905542 0.959942 0
0.0944579 0.0400585 0
0.0400585 0.905542 0
0.905542 0.0400585 0
0.959942 0.905542 0
0.0400585 0.0944579 0
0.0944579 0.959942 0
0.676891 0.678611 0
0.322599 0.676701 0
0.678611 0.323109 0
0.323103 0.321414 0
0.537704 0.801046 0
0.198963 0.537691 0
0.801067 0.462307 0
0.462293 0.198909 0
0.540587 0.668894 0
0.331306 0.540526 0
0.405647 0.656264 0
0.465938 0.807819 0
0.192181 0.465938 0
0.807819 0.534062 0
0.53405 0.192153 0
0.568773 0.911823 0
0.088177 0.568773 0
0.909915 0.431273 0
0.431227 0.088177 0
0.504785 0.4072 0
0.6766 0.967642 0
0.0323578 0.6766 0
0.967206 0.323624 0
0.32362 0.0327999 0
0.602711 0.83436 0
0.16564 0.602711 0
0.83436 0.397289 0
0.397289 0.16564 0
0.608379 0.704963 0
0.295037 0.608379 0
0.704963 0.391621 0
0.391621 0.295037 0
0.970555 0.525 0
0.525 0.0294449 0
0.475 0.970555 0
0.0294449 0.475 0
0.358374 0.777304 0
0.777304 0.641626 0
0.222696 0.358374 0
0.641626 0.222696 0
0.69892 0.7972 0
0.2028 0.69892 0
0.7972 0.30108 0
0.30108 0.2028 0
0.81306 0.867738 0
0.132262 0.81306 0
0.404682 0.576379 0
0.626191 0.464829 0
0.786512 0.756642 0
0.243358 0.786512 0
0.758256 0.211555 0
0.211555 0.241744 0
0.529294 0.296712 0
0.831202 0.72745 0
0.727675 0.168538 0
0.27255 0.831202 0
0.168538 0.272325 0
0.427155 0.700778 0
0.700875 0.571659 0
[...]
POINT_DATA 568
VECTORS displacement double
0.00000000004150814735 0.00000000004144772450 0.00000000000000000000
0.00000000261342316516 -0.00000000337611891069 0.00000000000000000000
0.78441560005526556054 -0.42344294021805817252 0.00000000000000000000
0.00000000280145464827 -0.00000000216144492340 0.00000000000000000000
0.00000000002880668108 0.00000000013102257945 0.00000000000000000000
0.00000000001835976419 0.00000000016422173594 0.00000000000000000000
0.00000000003642662803 0.00000000020067161826 0.00000000000000000000
0.00000000003344207711 0.00000000020719204566 0.00000000000000000000
0.00000000004636018255 0.00000000020972397445 0.00000000000000000000
0.00000000006212596709 0.00000000019654532732 0.00000000000000000000
0.00000000007149390536 0.00000000018555384784 0.00000000000000000000
0.00000000009275197956 0.00000000015960313973 0.00000000000000000000
0.00000000011318119935 0.00000000012469966064 0.00000000000000000000
0.00000000015539628921 0.00000000006671677682 0.00000000000000000000
0.00000000018932659940 0.00000000001286696064 0.00000000000000000000
0.00000000022070963793 -0.00000000005839253434 0.00000000000000000000
0.00000000029031343287 -0.00000000015869619382 0.00000000000000000000
0.00000000034355447667 -0.00000000025065254504 0.00000000000000000000
0.00000000040744772304 -0.00000000038084349542 0.00000000000000000000
0.00000000051981815810 -0.00000000057464119876 0.00000000000000000000
0.00000000054174228133 -0.00000000068814668580 0.00000000000000000000
0.00000000095246328988 -0.00000000117755779435 0.00000000000000000000
0.00000000102801151287 -0.00000000153545106353 0.00000000000000000000
0.03768760424277182997 -0.05008573206338128719 0.00000000000000000000
0.07105450642082067336 -0.08526876749613479523 0.00000000000000000000
0.10420529331009302509 -0.11424138296355350330 0.00000000000000000000
0.13977515630486883613 -0.14032426884569890180 0.00000000000000000000
0.17604512735965804904 -0.16321864278764008915 0.00000000000000000000
0.21401124863922244002 -0.18470261806015525474 0.00000000000000000000
0.25349441891213736477 -0.20479914022450987354 0.00000000000000000000
0.29331567497421440205 -0.22322926601624931697 0.00000000000000000000
0.33358225396712470889 -0.24058134952855042554 0.00000000000000000000
0.37460647757950943371 -0.25787381715069640498 0.00000000000000000000
0.41622062734986026156 -0.27424202564557942363 0.00000000000000000000
0.45744440825001747575 -0.28982041913293038471 0.00000000000000000000
0.49899837803042512707 -0.30594898832127170873 0.00000000000000000000
0.54079002063005487955 -0.32159086790466206995 0.00000000000000000000
0.58185191650398260244 -0.33710672612369635415 0.00000000000000000000
0.62272600419466261901 -0.35320136223320874880 0.00000000000000000000
0.66378248579342358227 -0.36970358225724725409 0.00000000000000000000
0.70427029660456774707 -0.38748940687583360853 0.00000000000000000000
0.74474242244160604454 -0.40474500666758633782 0.00000000000000000000
0.73933726132300703338 -0.38475474291737871146 0.00000000000000000000
0.69424336133407726912 -0.34848573812665833982 0.00000000000000000000
0.64940575200669514722 -0.31326509896297416446 0.00000000000000000000
0.60450008330738969065 -0.28126294775032611994 0.00000000000000000000
0.56033406538094410188 -0.25151858555830375330 0.00000000000000000000
0.51671250406901159113 -0.22437709909322989255 0.00000000000000000000
0.47337037465223574806 -0.19952464146187712246 0.00000000000000000000
0.43127698279578791096 -0.17693736139098351079 0.00000000000000000000
0.39025995771205562734 -0.15653202609070696050 0.00000000000000000000
0.35017296995480734489 -0.13868145868430670209 0.00000000000000000000
0.31119433056064615961 -0.12275521812874931604 0.00000000000000000000
0.27385628402182821128 -0.10839339835512974697 0.00000000000000000000
0.23744056735890262111 -0.09562585021698584431 0.00000000000000000000
0.20238809239723407063 -0.08419291324309016722 0.00000000000000000000
0.16880266957605399858 -0.07354169268330197629 0.00000000000000000000
0.13642140382710415958 -0.06338746623457028329 0.00000000000000000000
0.10508893871081165239 -0.05302980349436671459 0.00000000000000000000
0.07393250916063857925 -0.04079828847646999740 0.00000000000000000000
0.04159898210571869731 -0.02601128532818375652 0.00000000000000000000
0.00000000154090504919 -0.00000000097482372090 0.00000000000000000000
0.00000000139850279973 -0.00000000086242178977 0.00000000000000000000
0.00000000109368059396 -0.00000000056717246020 0.00000000000000000000
0.00000000104630007736 -0.00000000051502630770 0.00000000000000000000
0.00000000091923764533 -0.00000000038724567234 0.00000000000000000000
0.00000000083879922122 -0.00000000031113902899 0.00000000000000000000
0.00000000077112601795 -0.00000000026122342348 0.00000000000000000000
0.00000000068362770994 -0.00000000018537825333 0.00000000000000000000
0.00000000059421168083 -0.00000000011051912624 0.00000000000000000000
0.00000000054197140547 -0.00000000008340373826 0.00000000000000000000
0.00000000048991607690 -0.00000000005373204718 0.00000000000000000000
0.00000000041471689698 -0.00000000000128943078 0.00000000000000000000
0.00000000037494108498 0.00000000000559708604 0.00000000000000000000
0.00000000033332476264 0.00000000002292806106 0.00000000000000000000
0.00000000028671018613 0.00000000003971700807 0.00000000000000000000
0.00000000024765539701 0.00000000003839606050 0.00000000000000000000
0.00000000022197292540 0.00000000004546066742 0.00000000000000000000
0.00000000016942326776 0.00000000002137518894 0.00000000000000000000
0.00000000013229836154 0.00000000003279896398 0.00000000000000000000
0.15199964373786642446 -0.01231640686075177391 0.00000000000000000000
0.35253403442139658042 -0.12925547554069069522 0.00000000000000000000
0.12671482795932992316 -0.00952438844459014070 0.00000000000000000000
0.11502922704988446934 -0.03228120841755321296 0.00000000000000000000
0.04461609968859731046 0.02156139997405889103 0.00000000000000000000
0.26629814732425866053 -0.07193069025017324869 0.00000000000000000000
0.05903621299158173796 0.01815486930684947695 0.00000000000000000000
0.26604424448331026598 -0.11157180284468619369 0.00000000000000000000
0.05048628166900422098 0.00965234796055785757 0.00000000000000000000
0.51761715446860412371 -0.23879518521200845949 0.00000000000000000000
0.08430684620460961176 -0.01576879677743992653 0.00000000000000000000
0.07015407866749487353 -0.04132972366488060073 0.00000000000000000000
0.01607955789627042373 0.01399538171870950108 0.00000000000000000000
0.23959654221304740873 -0.05624554481320443583 0.00000000000000000000
0.12027512457879400987 0.00315660577247930908 0.00000000000000000000
0.16880802167784861312 -0.03755461410827014290 0.00000000000000000000
0.08240013225855093160 0.01312195523088479678 0.00000000000000000000
0.38942416140551844306 -0.14280436556560699435 0.00000000000000000000
0.05333317447432932984 0.00895123774302543362 0.00000000000000000000
0.19844858933816206248 -0.10662416343190470047 0.00000000000000000000
0.02517318230672814863 0.01413321501686498442 0.00000000000000000000
0.39740262501803802486 -0.19000206203879743683 0.00000000000000000000
0.20199702334658717340 -0.05360081653400385060 0.00000000000000000000
0.04094253669937277657 -0.00293108989477662866 0.00000000000000000000
0.02892370791981141095 0.01854007687738351909 0.00000000000000000000
0.18978813094780647153 -0.02924527154445591762 0.00000000000000000000
0.24691113293675515106 -0.07369357584326237387 0.00000000000000000000
0.08030286454278388886 0.01755450325478447385 0.00000000000000000000
0.09969366094232427755 -0.00338151975331854550 0.00000000000000000000
0.33258623781192514501 -0.11359341081162327436 0.00000000000000000000
0.03166903297368596493 0.01297851443046998260 0.00000000000000000000
0.29130720513807289995 -0.16269257875170814454 0.00000000000000000000
0.02143711568000859422 0.00842422063227033814 0.00000000000000000000
0.50097776032862695317 -0.21432209486174391699 0.00000000000000000000
0.03577283064104859467 0.00181232041474818184 0.00000000000000000000
0.14411889801329233474 -0.09913085699218893154 0.00000000000000000000
0.01351836132898849401 0.01084391776915945814 0.00000000000000000000
0.49570783860963557599 -0.24898037661478075733 0.00000000000000000000
0.03108962928448352064 -0.01027001484985226760 0.00000000000000000000
0.15211784433301753228 -0.04552396782849586071 0.00000000000000000000
0.01610129390751939907 0.01383352485994534392 0.00000000000000000000
0.31027764714953237624 -0.09557752214575035432 0.00000000000000000000
0.08713159663555859746 0.00926509584672956937 0.00000000000000000000
0.18798273561565451151 -0.06921551451736357441 0.00000000000000000000
0.04962741783861553818 0.01709818105527436544 0.00000000000000000000
0.31606816176159058251 -0.12178067915758385154 0.00000000000000000000
0.19091010520183662735 -0.03548606215229262867 0.00000000000000000000
0.07605708720155521241 -0.00444912053284650215 0.00000000000000000000
0.05305186115545922759 0.02193897204700052603 0.00000000000000000000
0.62448858153276654015 -0.31181750698994231685 0.00000000000000000000
0.04097666837554115454 -0.03638130278896586217 0.00000000000000000000
0.05149959621070417798 -0.01599591418598718742 0.00000000000000000000
0.00739721370688621073 0.00733195579496221956 0.00000000000000000000
0.26993400137674028461 -0.08817100122378897231 0.00000000000000000000
0.02179239339588976906 0.01339664961966606158 0.00000000000000000000
0.37408158328621055055 -0.20461995615211606148 0.00000000000000000000
0.02029494213644428280 0.00355206868050121204 0.00000000000000000000
0.43237984704501719602 -0.17584761519806410557 0.00000000000000000000
0.08756073031092347081 -0.00442510270230209602 0.00000000000000000000
0.11603106447495303843 -0.05420872048304323232 0.00000000000000000000
0.02670480235582639930 0.01839876335776757105 0.00000000000000000000
0.40742485715132836788 -0.17284524425659797409 0.00000000000000000000
0.13971899465615536529 -0.02324815043191887434 0.00000000000000000000
0.07711849314412505541 -0.02180759603448192974 0.00000000000000000000
0.03249180188403701097 0.02075467049287672838 0.00000000000000000000
0.18350861163893927852 -0.02517450288495769531 0.00000000000000000000
0.19875878002612082374 -0.03860313408692877396 0.00000000000000000000
0.11600709721136330532 0.00562755025772886976 0.00000000000000000000
0.13460395537093566842 -0.01131282353718154714 0.00000000000000000000
0.28830304064523742946 -0.08955639773079314414 0.00000000000000000000
0.14387310056500365874 -0.00971405617723452609 0.00000000000000000000
0.12577911141970968267 -0.02351532272751464744 0.00000000000000000000
0.06482928102251117597 0.02006710924365775334 0.00000000000000000000
0.56407791313642385855 -0.26011039359019200168 0.00000000000000000000
0.03836110518700102529 -0.00409052177782854697 0.00000000000000000000
0.09938015247758862081 -0.08120594383801670035 0.00000000000000000000
0.00893347782383158324 0.00813902148065323919 0.00000000000000000000
0.57674435227897413725 -0.29617292251580551454 0.00000000000000000000
0.02557625921434807104 -0.01622193811781541539 0.00000000000000000000
0.10723033997848933907 -0.03777697485404826055 0.00000000000000000000
0.00945526510900144071 0.00921635593513133941 0.00000000000000000000
0.23979562343754093345 -0.05487679447163756191 0.00000000000000000000
0.08734735994225142908 0.01437944066187063843 0.00000000000000000000
0.22112986895611136395 -0.07072815708397765799 0.00000000000000000000
0.07234885035127634756 0.01000815478750804143 0.00000000000000000000
0.40242222782317649266 -0.15293155614559189592 0.00000000000000000000
0.02542478079870468671 0.00830093763718573775 0.00000000000000000000
0.25026754692026681459 -0.16033521651969645516 0.00000000000000000000
0.01313050964469430169 0.00785665014576878394 0.00000000000000000000
0.45981233904590929074 -0.25080865257869006113 0.00000000000000000000
0.01655628296921823894 -0.00133268332864152467 0.00000000000000000000
0.21320184766816627220 -0.07198454616798365124 0.00000000000000000000
0.01329160246565347543 0.01069317235437585757 0.00000000000000000000
0.23862483871515532963 -0.06369235450566813894 0.00000000000000000000
0.33380680091318637448 -0.15409966634036828537 0.00000000000000000000
0.04024592289807245316 0.01942661331850161627 0.00000000000000000000
0.04389085868722768929 0.00364825668577285333 0.00000000000000000000
0.11259065075358627717 0.00418593060499961988 0.00000000000000000000
0.32619437258401978719 -0.10523072404733621599 0.00000000000000000000
0.05568479051003824565 0.01408854430357067700 0.00000000000000000000
0.23705507008797127577 -0.11258770381368672642 0.00000000000000000000
0.03514415323411672343 0.01324975261414287897 0.00000000000000000000
0.37288891051980938007 -0.13479572746151491369 0.00000000000000000000
0.08503444797210918393 0.00351507933898626826 0.00000000000000000000
0.15568468349677097584 -0.06592564326357507054 0.00000000000000000000
0.03553958311024756761 0.01868172745888815531 0.00000000000000000000
0.46190672027603152383 -0.18828604497081935509 0.00000000000000000000
0.02390690991765281534 0.00497588776766247701 0.00000000000000000000
0.20391749637031827969 -0.14429742579254278834 0.00000000000000000000
0.00995501170221067995 0.00737081163430949090 0.00000000000000000000
0.14524676393503946348 -0.00659142194677661639 0.00000000000000000000
0.17517448677689501091 -0.03121789453523379776 0.00000000000000000000
0.10045019119748596625 0.00373566557922822918 0.00000000000000000000
0.21840289157960313116 -0.04643338666102980739 0.00000000000000000000
0.27944015185760073816 -0.10446136659076832309 0.00000000000000000000
0.06297336143154408372 0.02005777561113658222 0.00000000000000000000
0.07033853347630519837 0.00294756804381543069 0.00000000000000000000
0.09051246638988438842 0.01376825748451538170 0.00000000000000000000
0.31725433122930901675 -0.11308282987064718905 0.00000000000000000000
0.01603817254107960111 0.00923065213907031494 0.00000000000000000000
0.35196451529293049099 -0.21172780282269859642 0.00000000000000000000
0.01198698439531699182 0.00407697842596131850 0.00000000000000000000
0.15454734625601634912 -0.01168223836327117460 0.00000000000000000000
0.28895699711454830849 -0.08783608215714124035 0.00000000000000000000
0.04176728546949450699 0.01692150788536152944 0.00000000000000000000
0.29596660508772543174 -0.14529081401281890296 0.00000000000000000000
0.03402021548631618819 0.00867530847643382952 0.00000000000000000000
0.43217971492129392264 -0.17071831579675092461 0.00000000000000000000
0.06057943247214826049 0.00364668434190240165 0.00000000000000000000
0.15562386308000011881 -0.08641234671457680150 0.00000000000000000000
0.02248771440218826426 0.01515826281922697839 0.00000000000000000000
0.48591397791405632756 -0.22683115126244002280 0.00000000000000000000
0.11999067264187673887 -0.02715757072369368030 0.00000000000000000000
0.05538013910715985227 -0.02364380443459771289 0.00000000000000000000
0.01981789878907547903 0.01630393359958157845 0.00000000000000000000
0.37409065282893821935 -0.15324388029872135220 0.00000000000000000000
0.15589809193737133586 -0.02591830659846426979 0.00000000000000000000
0.07916108915788259981 -0.01647952679298555351 0.00000000000000000000
0.03908922608920792352 0.02179236640659407837 0.00000000000000000000
0.31393604318794765540 -0.10126575990353456347 0.00000000000000000000
0.11678502198244923582 -0.00102106274410749469 0.00000000000000000000
0.14425803855140881260 -0.04066308100776273166 0.00000000000000000000
0.05441891422740728623 0.02003968524807514875 0.00000000000000000000
0.24937111590314808840 -0.06573453548962204795 0.00000000000000000000
0.13532214489066218821 -0.01917602024144822448 0.00000000000000000000
0.42625536219865878262 -0.24375078329316957060 0.00000000000000000000
0.01227037663331074883 0.00117715537220149731 0.00000000000000000000
0.25308907018408871581 -0.08841975302106226675 0.00000000000000000000
0.01241974838361393184 0.00923449422158485224 0.00000000000000000000
0.20831614811458526448 -0.05325847738519123159 0.00000000000000000000
0.02532305200980407636 -0.02877908162949419091 0.00000000000000000000
0.00361026184382134832 0.00366069383725829136 0.00000000000000000000
0.68807097133893857510 -0.35637965037014207592 0.00000000000000000000
0.03261989276418456041 -0.01374222659259475079 0.00000000000000000000
0.55222586781707216907 -0.24762602559479529596 0.00000000000000000000
0.02106737972355730848 0.00051027573600387333 0.00000000000000000000
0.14285145158866521808 -0.11760014278657311693 0.00000000000000000000
0.00688042069546151731 0.00601471909239334208 0.00000000000000000000
0.55692625565101405716 -0.29870048712634844623 0.00000000000000000000
0.01395503511239667288 -0.00651226091055517528 0.00000000000000000000
0.14512416186244064820 -0.05450125010782491675 0.00000000000000000000
0.00786764114006690760 0.00762029827080805931 0.00000000000000000000
0.48883926554240914042 -0.21344007728780758915 0.00000000000000000000
0.07307269454904803674 -0.00695223933504584245 0.00000000000000000000
0.10780193151523259631 -0.06382823403633267056 0.00000000000000000000
0.01842764284679741446 0.01479088116432283016 0.00000000000000000000
0.37216876163757089957 -0.14046394250584920416 0.00000000000000000000
0.01450011529784059512 0.00677713699526986783 0.00000000000000000000
0.30660271051625997973 -0.19982207692436348978 0.00000000000000000000
0.00870984004899398936 0.00441960604531936412 0.00000000000000000000
0.44227783287942767920 -0.21304774045788099635 0.00000000000000000000
0.04121648719831026708 -0.00866837858954887241 0.00000000000000000000
0.17092767595193203434 -0.04508242051041703308 0.00000000000000000000
0.02332789383681367970 0.01728630299085635869 0.00000000000000000000
0.21382285985336782486 -0.04079914835524151018 0.00000000000000000000
0.10461027667849789879 0.00992592177719545977 0.00000000000000000000
0.27100158420520031877 -0.07276359560157018291 0.00000000000000000000
0.09945157757397080078 0.00903469126841473930 0.00000000000000000000
0.18747645414158409238 -0.05644993919583544267 0.00000000000000000000
0.06580780765984613201 0.01525013670136752576 0.00000000000000000000
0.27932215638761587195 -0.07717913947093932303 0.00000000000000000000
0.07631795130196018795 0.01461481699445060442 0.00000000000000000000
0.22261766633238538882 -0.08376423109540237499 0.00000000000000000000
0.05506207797332565018 0.01349961176737194020 0.00000000000000000000
0.62856212419707158112 -0.30533527916215130737 0.00000000000000000000
0.02440934563922956407 -0.00459895830811697225 0.00000000000000000000
0.07681988554076812914 -0.07256276941579160866 0.00000000000000000000
0.00586135783078240748 0.00554404255156340422 0.00000000000000000000
0.62679215881381156183 -0.32754224208182658451 0.00000000000000000000
0.01672033511884759086 -0.01466201401017160934 0.00000000000000000000
0.08442201101784738149 -0.03448299264057741453 0.00000000000000000000
0.00548851655684224823 0.00572878090817738241 0.00000000000000000000
0.29301039389089994502 -0.09949871627373674254 0.00000000000000000000
0.16965528968917648056 -0.02264589526461443028 0.00000000000000000000
0.09943445154178032208 -0.01103478616397253129 0.00000000000000000000
0.06354802208170345912 0.02092573607914238742 0.00000000000000000000
0.36034399243391901368 -0.12659671057538227079 0.00000000000000000000
0.03984586963207008975 0.01199766213170058195 0.00000000000000000000
0.24891508442215121155 -0.13792881122423206186 0.00000000000000000000
0.02293377924435556145 0.01102711855338366423 0.00000000000000000000
0.40552802850141589364 -0.16450916468552251315 0.00000000000000000000
0.11733476183082929001 -0.01278376021187968732 0.00000000000000000000