# vtk DataFile Version 3.0
    
ASCII
DATASET UNSTRUCTURED_GRID
POINTS 568 float
0 0 0
1 0 0
1 1 0
0 1 0
0.05 0 0
0.1 0 0
0.15 0 0
0.2 0 0
0.25 0 0
0.3 0 0
0.35 0 0
0.4 0 0
0.45 0 0
0.5 0 0
0.55 0 0
0.6 0 0
0.65 0 0
0.7 0 0
0.75 0 0
0.8 0 0
0.85 0 0
0.9 0 0
0.95 0 0
1 0.05 0
1 0.1 0
1 0.15 0
1 0.2 0
1 0.25 0
1 0.3 0
1 0.35 0
1 0.4 0
1 0.45 0
1 0.5 0
1 0.55 0
1 0.6 0
1 0.65 0
1 0.7 0
1 0.75 0
1 0.8 0
1 0.85 0
1 0.9 0
1 0.95 0
0.95 1 0
0.9 1 0
0.85 1 0
0.8 1 0
0.75 1 0
0.7 1 0
0.65 1 0
0.6 1 0
0.55 1 0
0.5 1 0
0.45 1 0
0.4 1 0
0.35 1 0
0.3 1 0
0.25 1 0
0.2 1 0
0.15 1 0
0.1 1 0
0.05 1 0
0 0.95 0
0 0.9 0
0 0.85 0
0 0.8 0
0 0.75 0
0 0.7 0
0 0.65 0
0 0.6 0
0 0.55 0
0 0.5 0
0 0.45 0
0 0.4 0
0 0.35 0
0 0.3 0
0 0.25 0
0 0.2 0
0 0.15 0
0 0.1 0
0 0.05 0
0.50334 0.501197 0
0.702521 0.703589 0
0.296411 0.702521 0
0.703589 0.297479 0
0.297479 0.296411 0
0.5 0.780314 0
0.219686 0.5 0
0.780314 0.5 0
0.5 0.219686 0
0.828981 0.828981 0
0.171019 0.828981 0
0.831998 0.169013 0
0.169013 0.168002 0
0.565665 0.636705 0
0.359843 0.566986 0
0.640157 0.433014 0
0.433014 0.359843 0
0.639693 0.845985 0
0.154015 0.639693 0
0.845985 0.360307 0
0.360307 0.154015 0
0.845985 0.639693 0
0.360307 0.845985 0
0.639693 0.154015 0
0.154015 0.360307 0
0.443459 0.666416 0
0.665486 0.556167 0
0.333827 0.441301 0
0.558699 0.333827 0
0.534321 0.885632 0
0.114368 0.534321 0
0.885611 0.465728 0
0.465679 0.114368 0
0.741988 0.908927 0
0.0910728 0.741988 0
0.89586 0.257146 0
0.257146 0.10414 0
0.889491 0.736946 0
0.736882 0.110478 0
0.263054 0.889491 0
0.110478 0.263118 0
0.598195 0.74381 0
0.25619 0.598195 0
0.74381 0.401805 0
0.401805 0.25619 0
0.744174 0.60492 0
0.39508 0.744174 0
0.60492 0.255826 0
0.255826 0.39508 0
0.90045 0.902009 0
0.900828 0.0980768 0
0.097991 0.90045 0
0.0980768 0.0991724 0
0.435907 0.902899 0
0.097101 0.435907 0
0.902899 0.564093 0
0.564093 0.097101 0
0.739828 0.796296 0
0.203704 0.739828 0
0.796296 0.260172 0
0.260172 0.203704 0
0.779985 0.713973 0
0.286027 0.779985 0
0.713973 0.220015 0
0.220015 0.286027 0
0.491891 0.590243 0
0.573876 0.543184 0
0.410096 0.490839 0
0.549016 0.423065 0
0.651952 0.642499 0
0.359449 0.651648 0
0.642499 0.348048 0
0.348048 0.357501 0
0.817096 0.913187 0
0.086813 0.817096 0
0.918388 0.181726 0
0.181726 0.081612 0
0.918388 0.818274 0
0.821181 0.0828751 0
0.181726 0.918388 0
0.0828751 0.178819 0
0.514843 0.697072 0
0.302928 0.514843 0
0.700151 0.484819 0
0.483789 0.297452 0
0.609384 0.918475 0
0.0815251 0.609384 0
0.918901 0.390947 0
0.390616 0.0815251 0
0.926703 0.65773 0
0.65773 0.0732968 0
0.34227 0.926703 0
0.0732968 0.34227 0
0.430871 0.821542 0
0.821542 0.569129 0
0.178458 0.430871 0
0.569129 0.178458 0
0.461024 0.432542 0
0.567593 0.817943 0
0.182057 0.567593 0
0.817943 0.432407 0
0.432407 0.182057 0
0.668203 0.777698 0
0.222302 0.668203 0
0.777698 0.331797 0
0.331797 0.222302 0
0.677573 0.931062 0
0.0689379 0.677573 0
0.931062 0.322427 0
0.322427 0.0689379 0
0.435653 0.551594 0
0.589811 0.481409 0
0.498543 0.370759 0
0.447649 0.737524 0
0.737524 0.552351 0
0.262476 0.447649 0
0.551756 0.261045 0
0.394199 0.419122 0
0.486698 0.935107 0
0.0648933 0.486698 0
0.935107 0.513302 0
0.513302 0.0648933 0
0.406535 0.615806 0
0.497717 0.839987 0
0.160013 0.497717 0
0.839986 0.502285 0
0.502283 0.160013 0
0.700857 0.843504 0
0.156496 0.700857 0
0.843504 0.299143 0
0.299143 0.156496 0
0.839909 0.771061 0
0.228939 0.839909 0
0.772163 0.158997 0
0.158997 0.227837 0
0.763958 0.678082 0
0.321918 0.763958 0
0.678082 0.236042 0
0.236042 0.321918 0
0.645186 0.696016 0
0.304216 0.645149 0
0.696016 0.354814 0
0.354814 0.303984 0
0.612335 0.608467 0
0.601224 0.390978 0
0.939469 0.604854 0
0.604854 0.0605305 0
0.395146 0.939469 0
0.0605305 0.395146 0
0.644552 0.503693 0
0.941566 0.0584335 0
0.0584335 0.0584335 0
0.941566 0.941566 0
0.0584335 0.941566 0
0.77689 0.947062 0
0.052938 0.77689 0
0.944656 0.231675 0
0.231675 0.0553438 0
0.944208 0.767774 0
0.765434 0.0564522 0
0.232226 0.944208 0
0.0564522 0.234566 0
0.782849 0.837463 0
0.162537 0.782849 0
0.845341 0.226264 0
0.226264 0.154659 0
0.553072 0.948198 0
0.0518019 0.553072 0
0.948128 0.447089 0
0.446928 0.0518019 0
0.856075 0.693805 0
0.693799 0.143922 0
0.306195 0.856075 0
0.143922 0.306201 0
0.511725 0.640158 0
0.358157 0.511134 0
0.570512 0.696687 0
0.304297 0.569139 0
0.695958 0.43071 0
0.430595 0.30396 0
0.544655 0.74718 0
0.252871 0.544584 0
0.747302 0.455391 0
0.455331 0.252569 0
0.866964 0.947531 0
0.052469 0.866964 0
0.941004 0.138357 0
0.138357 0.0589959 0
0.940959 0.861653 0
0.865893 0.0548727 0
0.138347 0.940959 0
0.0548727 0.134107 0
0.692886 0.612047 0
0.386424 0.692863 0
0.612047 0.307114 0
0.305977 0.393468 0
0.582671 0.870133 0
0.129867 0.582671 0
0.870127 0.417439 0
0.417329 0.129867 0
0.749179 0.7423 0
0.2577 0.749179 0
0.7423 0.250821 0
0.250821 0.2577 0
0.618966 0.795216 0
0.204784 0.618966 0
0.795216 0.381034 0
0.381034 0.204784 0
0.94636 0.712092 0
0.711749 0.0537302 0
0.287908 0.94636 0
0.0537302 0.288251 0
0.851749 0.877052 0
0.122948 0.851749 0
0.851749 0.122948 0
0.122948 0.148251 0
0.530873 0.552993 0
0.38703 0.802831 0
0.802831 0.61297 0
0.197169 0.38703 0
0.61297 0.197169 0
0.794225 0.796409 0
0.203591 0.794225 0
0.800275 0.205967 0
0.205967 0.199725 0
0.715189 0.656794 0
0.342703 0.716724 0
0.656794 0.284811 0
0.284738 0.343558 0
0.378392 0.890647 0
0.890647 0.621608 0
0.109353 0.378392 0
0.621608 0.109353 0
0.535424 0.601199 0
0.507538 0.450656 0
0.808479 0.672081 0
0.327919 0.808479 0
0.672081 0.191521 0
0.191521 0.327919 0
0.452937 0.514948 0
0.608791 0.665924 0
0.332315 0.607792 0
0.663469 0.391531 0
0.391209 0.334076 0
0.876603 0.810413 0
0.189587 0.876603 0
0.669233 0.880408 0
0.119592 0.669233 0
0.880408 0.330767 0
0.330767 0.119592 0
0.440061 0.956387 0
0.0436128 0.440061 0
0.956387 0.559939 0
0.559939 0.0436128 0
0.811032 0.125875 0
0.125875 0.188968 0
0.55417 0.509224 0
0.487581 0.890801 0
0.109199 0.487581 0
0.890798 0.512425 0
0.512419 0.109199 0
0.433068 0.780312 0
0.780312 0.566932 0
0.219688 0.433068 0
0.566833 0.21945 0
0.717892 0.951367 0
0.0486329 0.717892 0
0.949157 0.283208 0
0.283208 0.0508433 0
0.455175 0.627431 0
0.873558 0.18922 0
0.18922 0.126442 0
0.637538 0.955782 0
0.0442184 0.637538 0
0.955813 0.362487 0
0.362462 0.0442184 0
0.618669 0.554923 0
0.377024 0.458194 0
0.593134 0.43977 0
0.547156 0.37829 0
0.889623 0.853117 0
0.146883 0.889623 0
0.887779 0.148476 0
0.148476 0.112221 0
0.780204 0.887683 0
0.112317 0.780204 0
0.711597 0.75039 0
0.24961 0.711597 0
0.75039 0.288403 0
0.288403 0.24961 0
0.826759 0.956111 0
0.0438895 0.826759 0
0.96081 0.180352 0
0.180352 0.0391903 0
0.960711 0.81954 0
0.820502 0.03884 0
0.18046 0.960711 0
0.03884 0.179498 0
0.354814 0.40313 0
0.399828 0.534628 0
0.472532 0.340817 0
0.514915 0.332674 0
0.479748 0.548727 0
0.423403 0.447621 0
0.490731 0.73759 0
0.467369 0.700155 0
0.262418 0.490719 0
0.299887 0.467007 0
0.697984 0.528973 0
0.738151 0.506971 0
0.507328 0.261312 0
0.328946 0.967797 0
0.0322209 0.329015 0
0.967797 0.671054 0
0.670985 0.0322209 0
0.461527 0.473444 0
0.465432 0.387884 0
0.575781 0.777517 0
0.222487 0.575775 0
0.777526 0.424223 0
0.424218 0.222465 0
0.883965 0.66252 0
0.33748 0.883965 0
0.662519 0.116034 0
0.116034 0.337481 0
0.655016 0.594528 0
0.595962 0.346094 0
0.895561 0.217206 0
0.217206 0.104439 0
0.54048 0.843335 0
0.156665 0.54048 0
0.843332 0.459537 0
0.45952 0.156665 0
0.593144 0.95886 0
0.0411399 0.593144 0
0.95886 0.406856 0
0.406856 0.0411399 0
0.453539 0.855515 0
0.144485 0.453539 0
0.855515 0.546462 0
0.546461 0.144485 0
0.404815 0.851304 0
0.851304 0.595186 0
0.148696 0.404815 0
0.595185 0.148696 0
0.392221 0.380678 0
0.904145 0.778689 0
0.221311 0.904145 0
0.6633 0.46626 0
0.642037 0.743165 0
0.256845 0.642036 0
0.743165 0.357963 0
0.357963 0.256835 0
0.547839 0.466402 0
0.77926 0.0996948 0
0.0996948 0.22074 0
0.624838 0.878082 0
0.121918 0.624838 0
0.878152 0.375235 0
0.375162 0.121918 0
0.962667 0.484951 0
0.484924 0.0373214 0
0.515076 0.962679 0
0.0373214 0.515076 0
0.669198 0.818209 0
0.181791 0.669198 0
0.818209 0.330802 0
0.330802 0.181791 0
0.900519 0.692619 0
0.692536 0.0994921 0
0.307381 0.900519 0
0.0994921 0.307464 0
0.959942 0.0944579 0
0.905542 0.959942 0
0.0944579 0.0400585 0
0.0400585 0.905542 0
0.905542 0.0400585 0
0.959942 0.905542 0
0.0400585 0.0944579 0
0.0944579 0.959942 0
0.676891 0.678611 0
0.322599 0.676701 0
0.678611 0.323109 0
0.323103 0.321414 0
0.537704 0.801046 0
0.198963 0.537691 0
0.801067 0.462307 0
0.462293 0.198909 0
0.540587 0.668894 0
0.331306 0.540526 0
0.405647 0.656264 0
0.465938 0.807819 0
0.192181 0.465938 0
0.807819 0.534062 0
0.53405 0.192153 0
0.568773 0.911823 0
0.088177 0.568773 0
0.909915 0.431273 0
0.431227 0.088177 0
0.504785 0.4072 0
0.6766 0.967642 0
0.0323578 0.6766 0
0.967206 0.323624 0
0.32362 0.0327999 0
0.602711 0.83436 0
0.16564 0.602711 0
0.83436 0.397289 0
0.397289 0.16564 0
0.608379 0.704963 0
0.295037 0.608379 0
0.704963 0.391621 0
0.391621 0.295037 0
0.970555 0.525 0
0.525 0.0294449 0
0.475 0.970555 0
0.0294449 0.475 0
0.358374 0.777304 0
0.777304 0.641626 0
0.222696 0.358374 0
0.641626 0.222696 0
0.69892 0.7972 0
0.2028 0.69892 0
0.7972 0.30108 0
0.30108 0.2028 0
0.81306 0.867738 0
0.132262 0.81306 0
0.404682 0.576379 0
0.626191 0.464829 0
0.786512 0.756642 0
0.243358 0.786512 0
0.758256 0.211555 0
0.211555 0.241744 0
0.529294 0.296712 0
0.831202 0.72745 0
0.727675 0.168538 0
0.27255 0.831202 0
0.168538 0.272325 0
0.427155 0.700778 0
0.700875 0.571659 0
[...]
POINT_DATA 568
VECTORS displacement double
0.01597532443123380122 0.01553268859256873823 0.00000000000000000000
0.03994188433070682692 -0.01149932542788975436 0.00000000000000000000
0.96983394921529697541 -0.04223157081513215227 0.00000000000000000000
0.04307251984083270563 -0.01629766124716883202 0.00000000000000000000
0.01950384882175147661 0.01978694781039916709 0.00000000000000000000
0.02180260442327616038 0.02259743139341235593 0.00000000000000000000
0.02434936837174371885 0.02590178909498483048 0.00000000000000000000
0.02603755217679315503 0.02780534229077418623 0.00000000000000000000
0.02802377233438855045 0.02958546999511378270 0.00000000000000000000
0.02968964132828046457 0.03082907669847373411 0.00000000000000000000
0.03099215549571771033 0.03170708153801637258 0.00000000000000000000
0.03248738232888386673 0.03223239977938606449 0.00000000000000000000
0.03388687830093670833 0.03248969515826093113 0.00000000000000000000
0.03506923896564385218 0.03205082419658211723 0.00000000000000000000
0.03605233485965188972 0.03133276185245906925 0.00000000000000000000
0.03701898588727369627 0.03028487911812544064 0.00000000000000000000
0.03782093466722329794 0.02848053720736393526 0.00000000000000000000
0.03829600730709339235 0.02615145420844734031 0.00000000000000000000
0.03871527332608424438 0.02303944528226826299 0.00000000000000000000
0.03905156997332986241 0.01896453306200113556 0.00000000000000000000
0.03890688543699243052 0.01428847662813313539 0.00000000000000000000
0.03963140870896880719 0.00742225327691215658 0.00000000000000000000
0.03895038186315670503 -0.00016217334255332478 0.00000000000000000000
0.07976378425838391573 -0.01550356906682857049 0.00000000000000000000
0.12374005925425082819 -0.01985618464313357659 0.00000000000000000000
0.16900216008085439112 -0.02214061885231383836 0.00000000000000000000
0.21754568384421391070 -0.02507471045481938360 0.00000000000000000000
0.26711255206165118725 -0.02699691782575734667 0.00000000000000000000
0.31828918841254227878 -0.02882021988449126951 0.00000000000000000000
0.37085869022494177827 -0.03021004108712513000 0.00000000000000000000
0.42343271665350851185 -0.03086320656485566638 0.00000000000000000000
0.47589332148659202470 -0.03112435510902442776 0.00000000000000000000
0.52842423475947952749 -0.03205458688114832394 0.00000000000000000000
0.58084513283800054406 -0.03234222105913614476 0.00000000000000000000
0.63207534632946871245 -0.03228466437179738219 0.00000000000000000000
0.68257087095470980742 -0.03297346598230405795 0.00000000000000000000
0.73198816821864431947 -0.03308445658377558857 0.00000000000000000000
0.77929186049595922103 -0.03338205006199395503 0.00000000000000000000
0.82432488811209470025 -0.03409099941466874062 0.00000000000000000000
0.86725297366930198528 -0.03443243427986081295 0.00000000000000000000
0.90525787745299635123 -0.03663199673123072181 0.00000000000000000000
0.94114993688424697371 -0.03785184942011102227 0.00000000000000000000
0.91916650771842001166 -0.03792857600091368436 0.00000000000000000000
0.86899977148463181109 -0.03323743102509440356 0.00000000000000000000
0.81996311255642140292 -0.02829012772768312381 0.00000000000000000000
0.77045277186932958902 -0.02430461306907651456 0.00000000000000000000
0.72134285550683763244 -0.02057835111892584654 0.00000000000000000000
0.67220409208344900076 -0.01750978452447399247 0.00000000000000000000
0.62315875246876484272 -0.01509726152144216273 0.00000000000000000000
0.57461979016562536593 -0.01292499632005557515 0.00000000000000000000
0.52638577566149369336 -0.01102174999389880436 0.00000000000000000000
0.47818497072536164660 -0.00985211948374646249 0.00000000000000000000
0.43019736172607370150 -0.00904501419500488256 0.00000000000000000000
0.38294602903387015003 -0.00809825197383088474 0.00000000000000000000
0.33569333982391907911 -0.00781924297459311510 0.00000000000000000000
0.28870282461105079008 -0.00801710810169222257 0.00000000000000000000
0.24293600279576979539 -0.00801430081008494902 0.00000000000000000000
0.19812752975120173637 -0.00845603713836879343 0.00000000000000000000
0.15378656808368618147 -0.00864916277954909211 0.00000000000000000000
0.11221615019584967043 -0.01123297971635614512 0.00000000000000000000
0.07321581785545942800 -0.01158438750387431361 0.00000000000000000000
0.05982877121214141836 -0.00907684455615655195 0.00000000000000000000
0.06542523546971552861 -0.00101703098875153435 0.00000000000000000000
0.06709567071609316702 0.00489398125429283109 0.00000000000000000000
0.06710050371996595375 0.00955362539647666709 0.00000000000000000000
0.06599116018526884897 0.01344357618444152851 0.00000000000000000000
0.06448538001177009371 0.01646606402782315945 0.00000000000000000000
0.06247282116594110590 0.01863589329250877474 0.00000000000000000000
0.06014438997572520845 0.02069740167846002496 0.00000000000000000000
0.05739210058923225471 0.02240142751876669433 0.00000000000000000000
0.05467254581686311482 0.02337783632344766008 0.00000000000000000000
0.05177661412806373181 0.02413274471018054396 0.00000000000000000000
0.04846729486834635420 0.02478870739225209896 0.00000000000000000000
0.04528220256977422836 0.02475841253432478281 0.00000000000000000000
0.04203699672081567112 0.02461414845652796710 0.00000000000000000000
0.03843724188874914766 0.02419220738437845991 0.00000000000000000000
0.03460014980966675396 0.02338344494227000137 0.00000000000000000000
0.03077840575791485414 0.02241772085089234479 0.00000000000000000000
0.02602318914586909324 0.02034557142430932358 0.00000000000000000000
0.02162116267793925267 0.01873462729991978021 0.00000000000000000000
0.28104805643717017949 0.08785936408610774129 0.00000000000000000000
0.51672535221542348349 0.05079513573119586595 0.00000000000000000000
0.23409995222254409430 0.05930105409806350064 0.00000000000000000000
0.23186533389094537982 0.06682963798636527841 0.00000000000000000000
0.12664855577392050701 0.07419697315402852544 0.00000000000000000000
0.40144736360871613456 0.05178990395210179148 0.00000000000000000000
0.14961368704940813945 0.06732501157013193183 0.00000000000000000000
0.41714164661761887753 0.05434386556029233151 0.00000000000000000000
0.14090519266248391350 0.07356926775748849623 0.00000000000000000000
0.70162375154121536802 0.00873827205278939791 0.00000000000000000000
0.17037886135840149548 0.02782438462828425163 0.00000000000000000000
0.15953204896878500629 0.03260960872133567695 0.00000000000000000000
0.06591292451863323132 0.05002019529892742788 0.00000000000000000000
0.38342196048078897030 0.07430033518166755113 0.00000000000000000000
0.23477313133645996701 0.07920196322406147793 0.00000000000000000000
0.30366533726284511419 0.08078261355181150238 0.00000000000000000000
0.18907782465925895843 0.08620811344127497777 0.00000000000000000000
0.54566587995582549464 0.02887426072014355471 0.00000000000000000000
0.14037788065590958708 0.04803417996599267104 0.00000000000000000000
0.32593437105951811317 0.03625074979553830068 0.00000000000000000000
0.09082355974131924026 0.06184410627785438819 0.00000000000000000000
0.57122355649641010089 0.02805263260170660217 0.00000000000000000000
0.31187511463046702076 0.03664723218341381372 0.00000000000000000000
0.12505380403117904997 0.05764916880804728250 0.00000000000000000000
0.09824370164213172552 0.05812640608165977468 0.00000000000000000000
0.31760645625797090386 0.07224622073352779394 0.00000000000000000000
0.39684281559152434493 0.07293711374499028954 0.00000000000000000000
0.18318544534768252396 0.08223916260284983015 0.00000000000000000000
0.21485872478729947654 0.08335371517939799135 0.00000000000000000000
0.47056106247018114619 0.02443382609795365784 0.00000000000000000000
0.10748144449325253147 0.04763276566379465171 0.00000000000000000000
0.43870108731312212891 0.02180409473475771256 0.00000000000000000000
0.08611059384950787987 0.05654428919537790588 0.00000000000000000000
0.66977453009927734318 0.00365436660385236268 0.00000000000000000000
0.11543204032188519870 0.02808127133906065595 0.00000000000000000000
0.24744683173004677901 0.01780543419392911428 0.00000000000000000000
0.06158948684709897314 0.04906849553551930615 0.00000000000000000000
0.68342826751575924682 0.00707799884592337069 0.00000000000000000000
0.10662437801547512695 0.04202996673000152644 0.00000000000000000000
0.24258645624374655658 0.02357322346032333926 0.00000000000000000000
0.07001266261367661281 0.04795940210761890504 0.00000000000000000000
0.46080729491770477946 0.05460038610239355272 0.00000000000000000000
0.18805914322200231736 0.06630495243982577336 0.00000000000000000000
0.32299386871994389958 0.06377538381150642255 0.00000000000000000000
0.13761800185543829333 0.07693158945668648885 0.00000000000000000000
0.47786666654290416156 0.05621838281757707972 0.00000000000000000000
0.31089270978873828621 0.05892804924110849052 0.00000000000000000000
0.18113818615973353854 0.07410016997489966839 0.00000000000000000000
0.14072244114614271271 0.07391103736890657083 0.00000000000000000000
0.81492123378994807403 -0.01581832919123433295 0.00000000000000000000
0.11045274997602599898 0.01259181221290590381 0.00000000000000000000
0.12286080146221338427 0.00928380063428890616 0.00000000000000000000
0.04177143352838774693 0.03536009898474324481 0.00000000000000000000
0.39008714637627811550 0.02207960233592487845 0.00000000000000000000
0.08835266107814016001 0.04707548997480431874 0.00000000000000000000
0.53978904585802411908 0.01268728913625238701 0.00000000000000000000
0.08588326169847276814 0.05157660233618154705 0.00000000000000000000
0.60429955843836069551 0.02949278533877539021 0.00000000000000000000
0.18226899347587433020 0.04464212665539385450 0.00000000000000000000
0.22595716329315304605 0.04719413659798145366 0.00000000000000000000
0.09135613543453016683 0.06304899401109360924 0.00000000000000000000
0.58168936891269196199 0.03621160351436852193 0.00000000000000000000
0.24292240177543100721 0.04656960285980517311 0.00000000000000000000
0.17905428242241308578 0.05849838561390451747 0.00000000000000000000
0.10330243603017108533 0.06535405788980205855 0.00000000000000000000
0.31624145984585416702 0.08183508780937975846 0.00000000000000000000
0.33847810845514081368 0.08265173369951295257 0.00000000000000000000
0.23296003829838152210 0.08636210946686391499 0.00000000000000000000
0.26097840936931782085 0.08769613694375764934 0.00000000000000000000
0.44318807955238093133 0.06627334312832866559 0.00000000000000000000
0.26022407477720183033 0.07098367682649607546 0.00000000000000000000
0.24894510033113256831 0.07823226563374072184 0.00000000000000000000
0.16100107979146627279 0.08192937594187338357 0.00000000000000000000
0.74254211334430963998 -0.00591994471836910542 0.00000000000000000000
0.11655324802387306837 0.01890635693519360574 0.00000000000000000000
0.18394992672097706943 0.00885091444525571563 0.00000000000000000000
0.04758903081046068906 0.04078858528547416040 0.00000000000000000000
0.77165195360941019054 -0.00914863113819181992 0.00000000000000000000
0.09353306107360337407 0.02697031632293685546 0.00000000000000000000
0.18147340108138548809 0.01273242559473378513 0.00000000000000000000
0.05143821680672844288 0.03896890908097211392 0.00000000000000000000
0.37785637739607735863 0.06738634798744541632 0.00000000000000000000
0.19127150298360098835 0.07730786298261704825 0.00000000000000000000
0.36614157562570270876 0.07151764928852161196 0.00000000000000000000
0.17531089161305751789 0.08246956993018896009 0.00000000000000000000
0.55143229055243869752 0.01158777511257786004 0.00000000000000000000
0.09970323936119190877 0.03732998569941067823 0.00000000000000000000
0.38165847171649541769 0.00917871519954649613 0.00000000000000000000
0.06558745451779869617 0.04968215294566386692 0.00000000000000000000
0.64133585847576735084 -0.00051615198999176116 0.00000000000000000000
0.07875344233568172536 0.04258838041446443012 0.00000000000000000000
0.31456164026055899452 0.01548442028718521532 0.00000000000000000000
0.06898907845671528594 0.04225238134589338890 0.00000000000000000000
0.36134122805899265840 0.04328371960812563840 0.00000000000000000000
0.49686668223978897041 0.03988290179016710374 0.00000000000000000000
0.11937948063934321341 0.06237972258798845510 0.00000000000000000000
0.13023457124981824284 0.06560156349557608180 0.00000000000000000000
0.23075607156686386845 0.08876800497897034681 0.00000000000000000000
0.47153326507679638180 0.04048350599084528378 0.00000000000000000000
0.14420567260133479448 0.05794424814927897488 0.00000000000000000000
0.37815002813673731508 0.04523756751869846549 0.00000000000000000000
0.11243115128689158688 0.06800153502863258426 0.00000000000000000000
0.53410418150084792988 0.04172458417447740681 0.00000000000000000000
0.18260811108519772739 0.05531765526553520523 0.00000000000000000000
0.27914991899369279160 0.05457226912781886624 0.00000000000000000000
0.11064646261974728225 0.06993029132205748344 0.00000000000000000000
0.62035357701597115820 0.00355127311823437387 0.00000000000000000000
0.09875832420785550514 0.03021870572693554843 0.00000000000000000000
0.31918659119455566886 0.00434783257614872708 0.00000000000000000000
0.05564692062921781923 0.04565550960680164055 0.00000000000000000000
0.26910213627785034562 0.08411897152358992213 0.00000000000000000000
0.31137695795493947060 0.08470371030393282485 0.00000000000000000000
0.21549385736762138865 0.08723688573166583915 0.00000000000000000000
0.34628437963167557623 0.06076558162869136887 0.00000000000000000000
0.43492545764252882323 0.06129949023575556599 0.00000000000000000000
0.15618504429808549583 0.07441836526193794377 0.00000000000000000000
0.17269686316577512186 0.07728083482117859004 0.00000000000000000000
0.19924046740518264187 0.08629773303557011777 0.00000000000000000000
0.44528745954091464299 0.01153024286002687568 0.00000000000000000000
0.08071189176035259427 0.03903057968174469816 0.00000000000000000000
0.50882619598325939947 0.00034391058370081761 0.00000000000000000000
0.06634054749038800769 0.04625049884120736171 0.00000000000000000000
0.27679978505296304325 0.07747055765713342645 0.00000000000000000000
0.42225236139395266877 0.03786084967771398413 0.00000000000000000000
0.12279646196564389382 0.05768573715060249657 0.00000000000000000000
0.44939481840572437221 0.03720916313211723725 0.00000000000000000000
0.11187281898656499524 0.06450013782867980439 0.00000000000000000000
0.59785967336535406069 0.02397481604344772754 0.00000000000000000000
0.14927800454730927315 0.04266662285600911209 0.00000000000000000000
0.27116904240551320537 0.03589016508327460414 0.00000000000000000000
0.08326559012960706163 0.05947221001061722689 0.00000000000000000000
0.67032695021742294550 0.01567409728725537021 0.00000000000000000000
0.21135259314182369694 0.03159198567996284596 0.00000000000000000000
0.14393345375333541081 0.04320362508109131666 0.00000000000000000000
0.07600991019026201445 0.05370044511297578094 0.00000000000000000000
0.54405115858291641651 0.04404195711345695180 0.00000000000000000000
0.26472755736624409284 0.05171017866256499146 0.00000000000000000000
0.18351503342388769680 0.06476755245304392783 0.00000000000000000000
0.11619912588863456904 0.06913276935268138079 0.00000000000000000000
0.47033919712735378083 0.05915337430460369805 0.00000000000000000000
0.22546448016798240066 0.06709729267066939784 0.00000000000000000000
0.27070564221395193583 0.07128967490474215352 0.00000000000000000000
0.14450013380434564847 0.07914669614768282679 0.00000000000000000000
0.39763988339534167560 0.07425608642903278045 0.00000000000000000000
0.26211936164438848218 0.08394050163767285966 0.00000000000000000000
0.60008022677160965941 -0.00373674625459675643 0.00000000000000000000
0.06886762655281848666 0.04278885848923726087 0.00000000000000000000
0.36386899747234924263 0.01158335053298297466 0.00000000000000000000
0.07016213300972808098 0.03944586731366938465 0.00000000000000000000
0.35153392900973351454 0.07907319048475736079 0.00000000000000000000
0.08228100308411559483 0.00150099186099448027 0.00000000000000000000
0.03005827571860030314 0.02683522275091925965 0.00000000000000000000
0.87875531008929996801 -0.02830965411419347766 0.00000000000000000000
0.09355002646575125147 -0.00107887077524757230 0.00000000000000000000
0.72246497076710647356 -0.00922994006147196192 0.00000000000000000000
0.09558746581248676877 0.01875554807034126095 0.00000000000000000000
0.23544941978715344666 -0.00096420758958711222 0.00000000000000000000
0.04453244403467505885 0.03948538897879622783 0.00000000000000000000
0.75197207588980363724 -0.01265057548210822905 0.00000000000000000000
0.07318461918892529838 0.03072848453491456786 0.00000000000000000000
0.22314121410494061615 0.00862004694399381120 0.00000000000000000000
0.05219798368042227743 0.03655757908669992479 0.00000000000000000000
0.66645972075741588547 0.01477607000615125711 0.00000000000000000000
0.16125661541954039446 0.03352574177524699633 0.00000000000000000000
0.20863439622637444670 0.03285947711004953004 0.00000000000000000000
0.07216151341750905168 0.05435358401004220658 0.00000000000000000000
0.51093913256830858494 0.00522249824568900116 0.00000000000000000000
0.08089265444326119991 0.03385290420279147422 0.00000000000000000000
0.44946739657117551481 -0.00488823552222397793 0.00000000000000000000
0.05659584483655195897 0.04380443813530602443 0.00000000000000000000
0.62293277446743888781 0.02053244780609212242 0.00000000000000000000
0.12470805483999426733 0.05143660547165074953 0.00000000000000000000
0.27141139504960765105 0.03282631418897036940 0.00000000000000000000
0.08605045481562777210 0.05518234274489036695 0.00000000000000000000
0.35066361351480113129 0.07579709829426733991 0.00000000000000000000
0.21605813239002399917 0.08243734571923524990 0.00000000000000000000
0.41706812182418512291 0.06513877781803333045 0.00000000000000000000
0.20631353446474265390 0.07422819217506482214 0.00000000000000000000
0.32521660657353890223 0.07312073312947775516 0.00000000000000000000
0.16448056925873613676 0.08260998901060676025 0.00000000000000000000
0.42186675034837911591 0.05725385675783491862 0.00000000000000000000
0.17457076153981368472 0.06982253511778306609 0.00000000000000000000
0.36596592532232768979 0.06313948974756951327 0.00000000000000000000
0.14779214222879960561 0.07787241366937097675 0.00000000000000000000
0.80938042282327105070 -0.01942632904334795629 0.00000000000000000000
0.09649028084824708140 0.00837753553620698005 0.00000000000000000000
0.14923364711950581896 0.00107558784886431220 0.00000000000000000000
0.03807334507304376003 0.03426380952142163427 0.00000000000000000000
0.82402777447275676881 -0.01913833593383688914 0.00000000000000000000
0.07597384209400381838 0.01698263178478601546 0.00000000000000000000
0.14832799351134892674 0.00522635168704729206 0.00000000000000000000
0.03989567437090157237 0.03183815121992653735 0.00000000000000000000
0.45030447470121898190 0.06410881056297274005 0.00000000000000000000
0.28942063047397076359 0.06667552898800044314 0.00000000000000000000
0.21407478595493120710 0.07815942890584406944 0.00000000000000000000
0.15805223282062377810 0.07931745656234973074 0.00000000000000000000
0.50685129690825692084 0.02647973682639792950 0.00000000000000000000
0.12077303080373788524 0.04803943097023834902 0.00000000000000000000
0.38708144808497835232 0.02824350865348301473 0.00000000000000000000
0.08801157130452511024 0.05916029329506908296 0.00000000000000000000
0.57736741736183727625 0.03739946142963552350 0.00000000000000000000
0.21832243542752921561 0.04903980004905476864 0.00000000000000000000
0.20698852544175816437 0.05692607171086253720 0.00000000000000000000
0.10396610672866377079 0.06683436906681922141 0.00000000000000000000