# vtk DataFile Version 3.0
    
ASCII
DATASET UNSTRUCTURED_GRID
POINTS 142 float
0 0 0
1 0 0
1 1 0
0 1 0
0.1 0 0
0.2 0 0
0.3 0 0
0.4 0 0
0.5 0 0
0.6 0 0
0.7 0 0
0.8 0 0
0.9 0 0
1 0.1 0
1 0.2 0
1 0.3 0
1 0.4 0
1 0.5 0
1 0.6 0
1 0.7 0
1 0.8 0
1 0.9 0
0.9 1 0
0.8 1 0
0.7 1 0
0.6 1 0
0.5 1 0
0.4 1 0
0.3 1 0
0.2 1 0
0.1 1 0
0 0.9 0
0 0.8 0
0 0.7 0
0 0.6 0
0 0.5 0
0 0.4 0
0 0.3 0
0 0.2 0
0 0.1 0
0.5 0.5 0
0.707143 0.707143 0
0.292857 0.707143 0
0.707143 0.292857 0
0.292857 0.292857 0
0.497 0.78488 0
0.21512 0.497 0
0.78488 0.503 0
0.503 0.21512 0
0.829497 0.829497 0
0.170503 0.829497 0
0.829497 0.170503 0
0.170503 0.170503 0
0.64071 0.848866 0
0.151134 0.64071 0
0.359205 0.848175 0
0.848175 0.640795 0
0.848866 0.35929 0
0.151825 0.359205 0
0.35929 0.151134 0
0.640795 0.151825 0
0.566986 0.640157 0
0.363936 0.572011 0
0.640157 0.433014 0
0.431769 0.356433 0
0.431587 0.659528 0
0.666173 0.558699 0
0.345738 0.434531 0
0.558699 0.333827 0
0.460465 0.890324 0
0.109676 0.460465 0
0.890324 0.539535 0
0.539535 0.109676 0
0.739074 0.902335 0
0.0976651 0.739074 0
0.902335 0.260926 0
0.260926 0.0976651 0
0.900559 0.740305 0
0.259695 0.900559 0
0.740305 0.0994409 0
0.0994409 0.259695 0
0.604121 0.745283 0
0.255748 0.607779 0
0.745283 0.395879 0
0.395879 0.254717 0
0.393407 0.746481 0
0.747312 0.605379 0
0.254177 0.393775 0
0.605379 0.252688 0
0.900122 0.900122 0
0.0998781 0.900122 0
0.900122 0.0998781 0
0.0998781 0.0998781 0
0.56908 0.916779 0
0.0832208 0.56908 0
0.916779 0.43092 0
0.43092 0.0832208 0
0.793413 0.720731 0
0.279067 0.793275 0
0.720731 0.206587 0
0.206835 0.279128 0
0.727794 0.801265 0
0.198735 0.727794 0
0.801265 0.272206 0
0.272206 0.198735 0
0.487185 0.589351 0
0.580327 0.541124 0
0.409677 0.491135 0
0.554918 0.426801 0
0.650232 0.640017 0
0.353859 0.654371 0
0.642499 0.348048 0
0.347016 0.354627 0
0.649773 0.933596 0
0.066404 0.649773 0
0.933596 0.350227 0
0.350227 0.066404 0
0.927812 0.644127 0
0.644127 0.0721883 0
0.355873 0.927812 0
0.0721883 0.355873 0
0.820102 0.920029 0
0.0799714 0.820102 0
0.920029 0.179898 0
0.179898 0.0799714 0
0.920029 0.820102 0
0.820102 0.0799714 0
0.179898 0.920029 0
0.0799714 0.179898 0
0.507721 0.698509 0
0.302103 0.508689 0
0.712239 0.495415 0
0.495238 0.287274 0
0.554275 0.837226 0
0.166875 0.55907 0
0.837226 0.445725 0
0.445725 0.162774 0
0.427519 0.817465 0
0.182699 0.427611 0
0.817673 0.572177 0
0.572177 0.182327 0
0.461024 0.432542 0
CELLS 242 968
3 108 141 68
3 1 13 91
3 0 4 92
3 2 22 89
3 3 31 90
3 1 91 12
3 0 92 39
3 2 89 21
3 3 90 30
3 68 141 64
3 65 129 85
3 66 131 86
3 67 130 87
3 68 132 88
3 62 107 105
3 62 105 65
3 63 106 108
3 63 66 106
3 129 45 85
3 130 46 87
3 131 47 86
3 132 48 88
3 54 82 102
3 53 81 101
3 59 84 104
3 57 83 103
3 42 102 82
3 41 101 81
3 44 104 84
3 43 103 83
3 56 97 86
3 55 98 85
3 60 99 88
3 58 100 87
3 64 141 67
3 26 27 69
3 35 36 70
3 17 18 71
3 8 9 72
3 18 117 71
3 9 118 72
3 27 119 69
3 36 120 70
3 63 131 66
3 64 132 68
3 41 86 97
3 42 85 98
3 43 88 99
3 44 87 100
3 62 65 110
3 64 67 112
3 67 141 107
3 40 105 107
3 40 108 106
3 56 71 117
3 60 72 118
3 55 69 119
3 58 70 120
3 23 24 73
3 32 33 74
3 14 15 75
3 5 6 76
3 19 20 77
3 10 11 79
3 28 29 78
3 37 38 80
3 26 69 93
3 35 70 94
3 17 71 95
3 8 72 96
3 56 77 97
3 55 78 98
3 60 79 99
3 58 80 100
3 45 133 69
3 46 134 70
3 47 135 71
3 48 136 72
3 61 109 81
3 62 110 82
3 63 111 83
3 64 112 84
3 49 73 101
3 50 74 102
3 51 75 103
3 52 76 104
3 41 81 109
3 42 82 110
3 43 83 111
3 44 84 112
3 61 106 109
3 66 109 106
3 63 108 111
3 68 111 108
3 25 26 93
3 34 35 94
3 16 17 95
3 7 8 96
3 45 137 85
3 47 139 86
3 46 138 87
3 48 140 88
3 23 73 121
3 32 74 122
3 14 75 123
3 5 76 124
3 20 125 77
3 11 126 79
3 29 127 78
3 38 128 80
3 54 102 74
3 53 101 73
3 59 104 76
3 57 103 75
3 49 97 77
3 50 98 78
3 51 99 79
3 52 100 80
3 13 14 123
3 22 23 121
3 4 5 124
3 31 32 122
3 20 21 125
3 11 12 126
3 29 30 127
3 38 39 128
3 69 133 93
3 70 134 94
3 71 135 95
3 72 136 96
3 13 123 91
3 4 124 92
3 22 121 89
3 31 122 90
3 21 89 125
3 12 91 126
3 30 90 127
3 39 92 128
3 49 101 97
3 50 102 98
3 51 103 99
3 52 104 100
3 61 81 129
3 62 82 130
3 63 83 131
3 64 84 132
3 45 69 137
3 46 70 138
3 55 137 69
3 58 138 70
3 47 71 139
3 48 72 140
3 56 139 71
3 60 140 72
3 24 113 73
3 33 114 74
3 55 119 78
3 53 73 113
3 54 74 114
3 56 117 77
3 58 120 80
3 60 118 79
3 28 78 119
3 19 77 117
3 37 80 120
3 10 79 118
3 15 115 75
3 6 116 76
3 57 75 115
3 59 76 116
3 45 129 81
3 46 130 82
3 47 131 83
3 48 132 84
3 61 129 105
3 65 105 129
3 62 130 107
3 67 107 130
3 49 121 73
3 50 122 74
3 49 77 125
3 51 123 75
3 50 78 127
3 52 124 76
3 51 79 126
3 52 80 128
3 53 133 81
3 45 81 133
3 54 134 82
3 46 82 134
3 47 83 135
3 57 135 83
3 59 136 84
3 48 84 136
3 65 85 110
3 42 110 85
3 66 86 109
3 41 109 86
3 67 87 112
3 68 88 111
3 44 112 87
3 43 111 88
3 41 97 101
3 42 98 102
3 43 99 103
3 44 100 104
3 49 89 121
3 50 90 122
3 49 125 89
3 50 127 90
3 51 91 123
3 51 126 91
3 52 92 124
3 52 128 92
3 40 106 105
3 61 105 106
3 25 93 113
3 34 94 114
3 53 113 93
3 54 114 94
3 16 95 115
3 7 96 116
3 57 115 95
3 59 116 96
3 24 25 113
3 33 34 114
3 15 16 115
3 6 7 116
3 18 19 117
3 9 10 118
3 27 28 119
3 36 37 120
3 55 85 137
3 56 86 139
3 58 87 138
3 60 88 140
3 53 93 133
3 54 94 134
3 57 95 135
3 59 96 136
3 40 141 108
3 40 107 141
CELL_TYPES 242
5
5
5
5
5
5
5
5
5
5
5
5
5
5
5
5
5
5
5
5
5
5
5
5
5
5
5
5
5
5
5
5
5
5
5
5
5
5
5
5
5
5
5
5
5
5
5
5
5
5
5
5
5
5
5
5
5
5
5
5
5
5
5
5
5
5
5
5
5
5
5
5
5
5
5
5
5
5
5
5
5
5
5
5
5
5
5
5
5
5
5
5
5
5
5
5
5
5
5
5
5
5
5
5
5
5
5
5
5
5
5
5
5
5
5
5
5
5
5
5
5
5
5
5
5
5
5
5
5
5
5
5
5
5
5
5
5
5
5
5
5
5
5
5
5
5
5
5
5
5
5
5
5
5
5
5
5
5
5
5
5
5
5
5
5
5
5
5
5
5
5
5
5
5
5
5
5
5
5
5
5
5
5
5
5
5
5
5
5
5
5
5
5
5
5
5
5
5
5
5
5
5
5
5
5
5
5
5
5
5
5
5
5
5
5
5
5
5
5
5
5
5
5
5
5
5
5
5
5
5
5
5
5
5
5
5
5
5
5
5
5
5
POINT_DATA 142
VECTORS displacement double
-0.00000000837435720557 0.00000000087513792017 0.00000000000000000000
-1.88100131237070877788 -3.57165515396010491145 0.00000000000000000000
1.40339755964182444359 -3.73974961456437249296 0.00000000000000000000
0.00000002618365364353 -0.00000001984028265089 0.00000000000000000000
-0.43568178616490949029 -0.32308459130800720738 0.00000000000000000000
-0.76050046143420280131 -0.62010788670767014175 0.00000000000000000000
-1.01502669463165595687 -0.94327265794195558346 0.00000000000000000000
-1.22006163614300366937 -1.30360023282025094815 0.00000000000000000000
-1.38407026715091596714 -1.67614189088963150276 0.00000000000000000000
-1.51646377449778491098 -2.05545425521124602852 0.00000000000000000000
-1.62261704739912171469 -2.44621245652258600956 0.00000000000000000000
-1.71284242719220491935 -2.82912839270119320645 0.00000000000000000000
-1.79525086416689227953 -3.20472051050638473413 0.00000000000000000000
-1.53864612085657403995 -3.55776350003375974040 0.00000000000000000000
-1.20481022000583459786 -3.53994129222981612770 0.00000000000000000000
-0.88037405705864402172 -3.52669230226377061754 0.00000000000000000000
-0.56652546338467613118 -3.52288198757121850946 0.00000000000000000000
-0.25630362532183681434 -3.53464981597459804163 0.00000000000000000000
0.05817792284893208432 -3.56400544250161077642 0.00000000000000000000
0.37233628290325815335 -3.60518971159081225153 0.00000000000000000000
0.69983185653720147990 -3.65580089193259238911 0.00000000000000000000
1.03918035084401649826 -3.70497621437607760342 0.00000000000000000000
1.46728591438263555879 -3.37560286052070601670 0.00000000000000000000
1.50834235387357606939 -3.02595682622659190031 0.00000000000000000000
1.52101428123671578163 -2.67953344535324688991 0.00000000000000000000
1.50336970942865377765 -2.33265970117607412959 0.00000000000000000000
1.44686370937521546765 -1.98293696479990066983 0.00000000000000000000
1.34072261644474655107 -1.63400334535115843160 0.00000000000000000000
1.17722870073049756812 -1.27260238507453360413 0.00000000000000000000
0.93952330259841643212 -0.91449132574736846646 0.00000000000000000000
0.58299162229685119740 -0.52864461776771765056 0.00000000000000000000
0.00000001203325220063 -0.00000000905795542912 0.00000000000000000000
0.00000000945952914184 -0.00000000735512368141 0.00000000000000000000
0.00000000743773096083 -0.00000000617106398252 0.00000000000000000000
0.00000000614421442620 -0.00000000550076639170 0.00000000000000000000
0.00000000468276011901 -0.00000000458772347139 0.00000000000000000000
0.00000000311733167186 -0.00000000366820200885 0.00000000000000000000
0.00000000182798595913 -0.00000000293322087218 0.00000000000000000000
0.00000000008853123963 -0.00000000199836256902 0.00000000000000000000
-0.00000000174325783785 -0.00000000119773532867 0.00000000000000000000
0.01963290506340731323 -1.63658339368658922730 0.00000000000000000000
0.55314359554794056972 -2.55294940016520399695 0.00000000000000000000
0.35573075519164609748 -0.91945977881272533683 0.00000000000000000000
-0.65204265248597748084 -2.45355777351237458461 0.00000000000000000000
-0.28527739713957600554 -0.80995088617709554146 0.00000000000000000000
0.74454101584746457121 -1.79039208802263138942 0.00000000000000000000
0.02004985228044312007 -0.55511826474058401093 0.00000000000000000000
-0.08298374878152892098 -2.78111281526846809697 0.00000000000000000000
-0.69279638347602912063 -1.63608780541775278294 0.00000000000000000000
0.90446587696739366713 -3.06292836996696049567 0.00000000000000000000
0.37048615970720027990 -0.53036371637925594502 0.00000000000000000000
-1.14311895348902248237 -2.93216229023265695375 0.00000000000000000000
-0.30983757094523151077 -0.40338991285339598214 0.00000000000000000000
1.00198390687368377172 -2.38089312764751559470 0.00000000000000000000
0.12025167066500461188 -0.38090747416346787402 0.00000000000000000000
0.78387011460332367552 -1.31075664322721996413 0.00000000000000000000
0.29070001308387527494 -3.05490607704632610719 0.00000000000000000000
-0.56086041322985735746 -2.99888013850187151732 0.00000000000000000000
-0.08681198694328831622 -0.34346536340443450941 0.00000000000000000000
-0.68281662497772599441 -1.08777434674479933641 0.00000000000000000000
-1.03125204872073128470 -2.19723584888371670232 0.00000000000000000000
0.36973104462769346146 -1.97043074406384666197 0.00000000000000000000
0.15903350304445351693 -1.11437745238891361410 0.00000000000000000000
-0.20560157568138975881 -2.19620118349853576944 0.00000000000000000000
-0.27816603196151024058 -1.33754805737698245771 0.00000000000000000000
0.37379367896153581352 -1.43301790143141705158 0.00000000000000000000
0.13263032172254196617 -2.33643815295984103031 0.00000000000000000000
-0.07938943360559674867 -1.00479443196955253725 0.00000000000000000000
-0.42109442057205315191 -1.85036771434628355415 0.00000000000000000000
1.03844159330301200050 -1.74160871111158455093 0.00000000000000000000
-0.01057827949464866524 -0.23671146366586251486 0.00000000000000000000
-0.04778169634578333103 -3.17311796143040947271 0.00000000000000000000
-1.05818660636870309766 -1.80097241291307685884 0.00000000000000000000
1.17974196011024279329 -2.76953542068139269006 0.00000000000000000000
0.13436379052981456406 -0.23653944032956403243 0.00000000000000000000
-0.91309959581402311279 -3.19427331132986136453 0.00000000000000000000
-0.64424480992036148308 -0.74687338406438619209 0.00000000000000000000
0.57146094771281785718 -3.28226124049667333793 0.00000000000000000000
0.75891812540648073693 -0.98250277954956499737 0.00000000000000000000
-1.30242399107105599754 -2.59573014452279871023 0.00000000000000000000
-0.11333898849625162475 -0.19483214553256300583 0.00000000000000000000
0.67252593632706214599 -2.17697138389323763263 0.00000000000000000000
0.16165037105336715895 -0.71914038433757965230 0.00000000000000000000
-0.37304174036292020444 -2.60771555546492583844 0.00000000000000000000
-0.47448998279994042404 -1.19856768144519909569 0.00000000000000000000
0.55247728194167033955 -1.34093184494467143608 0.00000000000000000000
0.23301370957130884687 -2.66443400361167048729 0.00000000000000000000
-0.10739012479420748103 -0.66633840951548173326 0.00000000000000000000
-0.68821556238277925566 -2.04389682749377943338 0.00000000000000000000
1.10891648691236088808 -3.34480893317910066287 0.00000000000000000000
0.29735610975499571218 -0.32417180832730818629 0.00000000000000000000
-1.44412343858012803821 -3.20079203209876128611 0.00000000000000000000
-0.24615637673051071754 -0.22054339797513228261 0.00000000000000000000
1.20426171454167696417 -2.16678217237433967668 0.00000000000000000000
0.03567844836403676057 -0.18406537534548225721 0.00000000000000000000
-0.39604754805393416195 -3.24707314818556413982 0.00000000000000000000
-0.99370413500498711024 -1.38547059816169104707 0.00000000000000000000
0.56699061390532223825 -2.88458046642909948787 0.00000000000000000000
0.51104726542565948044 -0.93187864256056196499 0.00000000000000000000
-0.93023622968828156843 -2.50990940874407097994 0.00000000000000000000
-0.21702592882792429152 -0.50884086231877190265 0.00000000000000000000
0.84581761042476866219 -2.67949336598928677944 0.00000000000000000000
0.26939831302461247908 -0.57369031635030298677 0.00000000000000000000
-0.79041824774243618634 -2.81862192151654689098 0.00000000000000000000
-0.43494044005906606909 -0.74624387160441818523 0.00000000000000000000
0.22773050484005824545 -1.61744280494823988725 0.00000000000000000000
0.10682507676689545484 -1.97801846472699049961 0.00000000000000000000
0.00783125956258984290 -1.26277069465963753814 0.00000000000000000000
-0.18275851312494939549 -1.84604992819279867255 0.00000000000000000000
0.36672660002403190127 -2.30228330143317583278 0.00000000000000000000
0.31290262459982903787 -1.12089490456281537512 0.00000000000000000000
-0.44049865709304836248 -2.19371425983744439137 0.00000000000000000000
-0.22333942213420140965 -1.00695765731610253901 0.00000000000000000000
1.28584469693995240291 -2.46700155218477057417 0.00000000000000000000
0.05786325220493680754 -0.15047048122672440629 0.00000000000000000000
-0.66031143151645621536 -3.30163714578026379343 0.00000000000000000000
-0.90765803827230007172 -1.09241730323674279823 0.00000000000000000000
0.24919899923350508075 -3.33861353079941203248 0.00000000000000000000
-1.30344238225218145288 -2.22206733879452800196 0.00000000000000000000
1.02764312634747767561 -1.39121820420539310525 0.00000000000000000000
-0.04150825700912086358 -0.14601899275142102286 0.00000000000000000000
1.21822777151365713166 -3.06807957632874250820 0.00000000000000000000
0.16566976693267623788 -0.21622257165203173646 0.00000000000000000000
-1.19250645124430731947 -3.26491100606250528315 0.00000000000000000000
-0.49944048032074517263 -0.48854584659620875486 0.00000000000000000000
0.82197726967643403029 -3.38538844434773178449 0.00000000000000000000
-1.44200225003827720016 -2.90465511833343770220 0.00000000000000000000
0.61338334403566641129 -0.69403886501720735147 0.00000000000000000000
-0.13674622586717821715 -0.15926937690138248671 0.00000000000000000000
0.51032064959917400326 -1.76646028050902437201 0.00000000000000000000
0.04001604411561238139 -0.85768928049608117448 0.00000000000000000000
-0.06422868529554659478 -2.49882610295438079007 0.00000000000000000000
-0.49103533877749383496 -1.59470285855805271602 0.00000000000000000000
0.93760787621252872359 -2.05086897839892090545 0.00000000000000000000
0.06543059442859056052 -0.41570995751825129405 0.00000000000000000000
-0.28867065533021096790 -2.96499840111771684192 0.00000000000000000000
-0.77424660671096945386 -1.41892106141087426252 0.00000000000000000000
0.78084069081933948908 -1.54119811301493458977 0.00000000000000000000
-0.04384632080010675281 -0.44596514279580368179 0.00000000000000000000
0.09783449403856026017 -2.91873398537027828326 0.00000000000000000000
-0.86577772405908304254 -1.92291945386556650810 0.00000000000000000000
-0.12801870239456270006 -1.45822303823940835343 0.00000000000000000000
