# vtk DataFile Version 3.0
    
ASCII
DATASET UNSTRUCTURED_GRID
POINTS 142 float
0 0 0
1 0 0
1 1 0
0 1 0
0.1 0 0
0.2 0 0
0.3 0 0
0.4 0 0
0.5 0 0
0.6 0 0
0.7 0 0
0.8 0 0
0.9 0 0
1 0.1 0
1 0.2 0
1 0.3 0
1 0.4 0
1 0.5 0
1 0.6 0
1 0.7 0
1 0.8 0
1 0.9 0
0.9 1 0
0.8 1 0
0.7 1 0
0.6 1 0
0.5 1 0
0.4 1 0
0.3 1 0
0.2 1 0
0.1 1 0
0 0.9 0
0 0.8 0
0 0.7 0
0 0.6 0
0 0.5 0
0 0.4 0
0 0.3 0
0 0.2 0
0 0.1 0
0.5 0.5 0
0.707143 0.707143 0
0.292857 0.707143 0
0.707143 0.292857 0
0.292857 0.292857 0
0.497 0.78488 0
0.21512 0.497 0
0.78488 0.503 0
0.503 0.21512 0
0.829497 0.829497 0
0.170503 0.829497 0
0.829497 0.170503 0
0.170503 0.170503 0
0.64071 0.848866 0
0.151134 0.64071 0
0.359205 0.848175 0
0.848175 0.640795 0
0.848866 0.35929 0
0.151825 0.359205 0
0.35929 0.151134 0
0.640795 0.151825 0
0.566986 0.640157 0
0.363936 0.572011 0
0.640157 0.433014 0
0.431769 0.356433 0
0.431587 0.659528 0
0.666173 0.558699 0
0.345738 0.434531 0
0.558699 0.333827 0
0.460465 0.890324 0
0.109676 0.460465 0
0.890324 0.539535 0
0.539535 0.109676 0
0.739074 0.902335 0
0.0976651 0.739074 0
0.902335 0.260926 0
0.260926 0.0976651 0
0.900559 0.740305 0
0.259695 0.900559 0
0.740305 0.0994409 0
0.0994409 0.259695 0
0.604121 0.745283 0
0.255748 0.607779 0
0.745283 0.395879 0
0.395879 0.254717 0
0.393407 0.746481 0
0.747312 0.605379 0
0.254177 0.393775 0
0.605379 0.252688 0
0.900122 0.900122 0
0.0998781 0.900122 0
0.900122 0.0998781 0
0.0998781 0.0998781 0
0.56908 0.916779 0
0.0832208 0.56908 0
0.916779 0.43092 0
0.43092 0.0832208 0
0.793413 0.720731 0
0.279067 0.793275 0
0.720731 0.206587 0
0.206835 0.279128 0
0.727794 0.801265 0
0.198735 0.727794 0
0.801265 0.272206 0
0.272206 0.198735 0
0.487185 0.589351 0
0.580327 0.541124 0
0.409677 0.491135 0
0.554918 0.426801 0
0.650232 0.640017 0
0.353859 0.654371 0
0.642499 0.348048 0
0.347016 0.354627 0
0.649773 0.933596 0
0.066404 0.649773 0
0.933596 0.350227 0
0.350227 0.066404 0
0.927812 0.644127 0
0.644127 0.0721883 0
0.355873 0.927812 0
0.0721883 0.355873 0
0.820102 0.920029 0
0.0799714 0.820102 0
0.920029 0.179898 0
0.179898 0.0799714 0
0.920029 0.820102 0
0.820102 0.0799714 0
0.179898 0.920029 0
0.0799714 0.179898 0
0.507721 0.698509 0
0.302103 0.508689 0
0.712239 0.495415 0
0.495238 0.287274 0
0.554275 0.837226 0
0.166875 0.55907 0
0.837226 0.445725 0
0.445725 0.162774 0
0.427519 0.817465 0
0.182699 0.427611 0
0.817673 0.572177 0
0.572177 0.182327 0
0.461024 0.432542 0
CELLS 242 968
3 108 141 68
3 1 13 91
3 0 4 92
3 2 22 89
3 3 31 90
3 1 91 12
3 0 92 39
3 2 89 21
3 3 90 30
3 68 141 64
3 65 129 85
3 66 131 86
3 67 130 87
3 68 132 88
3 62 107 105
3 62 105 65
3 63 106 108
3 63 66 106
3 129 45 85
3 130 46 87
3 131 47 86
3 132 48 88
3 54 82 102
3 53 81 101
3 59 84 104
3 57 83 103
3 42 102 82
3 41 101 81
3 44 104 84
3 43 103 83
3 56 97 86
3 55 98 85
3 60 99 88
3 58 100 87
3 64 141 67
3 26 27 69
3 35 36 70
3 17 18 71
3 8 9 72
3 18 117 71
3 9 118 72
3 27 119 69
3 36 120 70
3 63 131 66
3 64 132 68
3 41 86 97
3 42 85 98
3 43 88 99
3 44 87 100
3 62 65 110
3 64 67 112
3 67 141 107
3 40 105 107
3 40 108 106
3 56 71 117
3 60 72 118
3 55 69 119
3 58 70 120
3 23 24 73
3 32 33 74
3 14 15 75
3 5 6 76
3 19 20 77
3 10 11 79
3 28 29 78
3 37 38 80
3 26 69 93
3 35 70 94
3 17 71 95
3 8 72 96
3 56 77 97
3 55 78 98
3 60 79 99
3 58 80 100
3 45 133 69
3 46 134 70
3 47 135 71
3 48 136 72
3 61 109 81
3 62 110 82
3 63 111 83
3 64 112 84
3 49 73 101
3 50 74 102
3 51 75 103
3 52 76 104
3 41 81 109
3 42 82 110
3 43 83 111
3 44 84 112
3 61 106 109
3 66 109 106
3 63 108 111
3 68 111 108
3 25 26 93
3 34 35 94
3 16 17 95
3 7 8 96
3 45 137 85
3 47 139 86
3 46 138 87
3 48 140 88
3 23 73 121
3 32 74 122
3 14 75 123
3 5 76 124
3 20 125 77
3 11 126 79
3 29 127 78
3 38 128 80
3 54 102 74
3 53 101 73
3 59 104 76
3 57 103 75
3 49 97 77
3 50 98 78
3 51 99 79
3 52 100 80
3 13 14 123
3 22 23 121
3 4 5 124
3 31 32 122
3 20 21 125
3 11 12 126
3 29 30 127
3 38 39 128
3 69 133 93
3 70 134 94
3 71 135 95
3 72 136 96
3 13 123 91
3 4 124 92
3 22 121 89
3 31 122 90
3 21 89 125
3 12 91 126
3 30 90 127
3 39 92 128
3 49 101 97
3 50 102 98
3 51 103 99
3 52 104 100
3 61 81 129
3 62 82 130
3 63 83 131
3 64 84 132
3 45 69 137
3 46 70 138
3 55 137 69
3 58 138 70
3 47 71 139
3 48 72 140
3 56 139 71
3 60 140 72
3 24 113 73
3 33 114 74
3 55 119 78
3 53 73 113
3 54 74 114
3 56 117 77
3 58 120 80
3 60 118 79
3 28 78 119
3 19 77 117
3 37 80 120
3 10 79 118
3 15 115 75
3 6 116 76
3 57 75 115
3 59 76 116
3 45 129 81
3 46 130 82
3 47 131 83
3 48 132 84
3 61 129 105
3 65 105 129
3 62 130 107
3 67 107 130
3 49 121 73
3 50 122 74
3 49 77 125
3 51 123 75
3 50 78 127
3 52 124 76
3 51 79 126
3 52 80 128
3 53 133 81
3 45 81 133
3 54 134 82
3 46 82 134
3 47 83 135
3 57 135 83
3 59 136 84
3 48 84 136
3 65 85 110
3 42 110 85
3 66 86 109
3 41 109 86
3 67 87 112
3 68 88 111
3 44 112 87
3 43 111 88
3 41 97 101
3 42 98 102
3 43 99 103
3 44 100 104
3 49 89 121
3 50 90 122
3 49 125 89
3 50 127 90
3 51 91 123
3 51 126 91
3 52 92 124
3 52 128 92
3 40 106 105
3 61 105 106
3 25 93 113
3 34 94 114
3 53 113 93
3 54 114 94
3 16 95 115
3 7 96 116
3 57 115 95
3 59 116 96
3 24 25 113
3 33 34 114
3 15 16 115
3 6 7 116
3 18 19 117
3 9 10 118
3 27 28 119
3 36 37 120
3 55 85 137
3 56 86 139
3 58 87 138
3 60 88 140
3 53 93 133
3 54 94 134
3 57 95 135
3 59 96 136
3 40 141 108
3 40 107 141
CELL_TYPES 242
5
5
5
5
5
5
5
5
5
5
5
5
5
5
5
5
5
5
5
5
5
5
5
5
5
5
5
5
5
5
5
5
5
5
5
5
5
5
5
5
5
5
5
5
5
5
5
5
5
5
5
5
5
5
5
5
5
5
5
5
5
5
5
5
5
5
5
5
5
5
5
5
5
5
5
5
5
5
5
5
5
5
5
5
5
5
5
5
5
5
5
5
5
5
5
5
5
5
5
5
5
5
5
5
5
5
5
5
5
5
5
5
5
5
5
5
5
5
5
5
5
5
5
5
5
5
5
5
5
5
5
5
5
5
5
5
5
5
5
5
5
5
5
5
5
5
5
5
5
5
5
5
5
5
5
5
5
5
5
5
5
5
5
5
5
5
5
5
5
5
5
5
5
5
5
5
5
5
5
5
5
5
5
5
5
5
5
5
5
5
5
5
5
5
5
5
5
5
5
5
5
5
5
5
5
5
5
5
5
5
5
5
5
5
5
5
5
5
5
5
5
5
5
5
5
5
5
5
5
5
5
5
5
5
5
5
5
5
5
5
5
5
POINT_DATA 142
VECTORS displacement double
-0.00000000837435720557 0.00000000087513792017 0.00000000000000000000
-0.88100131237070866685 -3.57165515396010491145 0.00000000000000000000
2.40339755964182444359 -3.73974961456437249296 0.00000000000000000000
0.00000002618365364353 -0.00000001984028265089 0.00000000000000000000
-0.33568178616509480872 -0.32308459130800720738 0.00000000000000000000
-0.56050046143464493653 -0.62010788670767014175 0.00000000000000000000
-0.71502669463238954783 -0.94327265794195558346 0.00000000000000000000
-0.82006163614402871609 -1.30360023282025094815 0.00000000000000000000
-0.88407026715222158941 -1.67614189088963150276 0.00000000000000000000
-0.91646377449883809074 -2.05545425521124602852 0.00000000000000000000
-0.92261704739991168278 -2.44621245652258600956 0.00000000000000000000
-0.91284242719273145372 -2.82912839270119320645 0.00000000000000000000
-0.89525086416715549120 -3.20472051050638473413 0.00000000000000000000
-0.53864612085657403995 -3.55776350003375974040 0.00000000000000000000
-0.20481022000583457010 -3.53994129222981612770 0.00000000000000000000
0.11962594294135593664 -3.52669230226377061754 0.00000000000000000000
0.43347453661532386882 -3.52288198757121850946 0.00000000000000000000
0.74369637467816318566 -3.53464981597459804163 0.00000000000000000000
1.05817792284893208432 -3.56400544250161077642 0.00000000000000000000
1.37233628290325815335 -3.60518971159081225153 0.00000000000000000000
1.69983185653720147990 -3.65580089193259238911 0.00000000000000000000
2.03918035084401649826 -3.70497621437607760342 0.00000000000000000000
2.36728591438221913634 -3.37560286052070601670 0.00000000000000000000
2.30834235387357589175 -3.02595682622659190031 0.00000000000000000000
2.22101428123740918252 -2.67953344535324688991 0.00000000000000000000
2.10336970943004075707 -2.33265970117607412959 0.00000000000000000000
1.94686370937727404318 -1.98293696479990066983 0.00000000000000000000
1.74072261644641090861 -1.63400334535115843160 0.00000000000000000000
1.47722870073174594729 -1.27260238507453360413 0.00000000000000000000
1.13952330259924861089 -0.91449132574736846646 0.00000000000000000000
0.68299162229726717577 -0.52864461776771765056 0.00000000000000000000
0.00000001203325220063 -0.00000000905795542912 0.00000000000000000000
0.00000000945952914184 -0.00000000735512368141 0.00000000000000000000
0.00000000743773096083 -0.00000000617106398252 0.00000000000000000000
0.00000000614421442620 -0.00000000550076639170 0.00000000000000000000
0.00000000468276011901 -0.00000000458772347139 0.00000000000000000000
0.00000000311733167186 -0.00000000366820200885 0.00000000000000000000
0.00000000182798595913 -0.00000000293322087218 0.00000000000000000000
0.00000000008853123963 -0.00000000199836256902 0.00000000000000000000
-0.00000000174325783785 -0.00000000119773532867 0.00000000000000000000
0.51963290506340731323 -1.63658339368658922730 0.00000000000000000000
1.26028645269081573943 -2.55294940016520399695 0.00000000000000000000
0.64858789804880911944 -0.91945977881272533683 0.00000000000000000000
0.05510020465686178009 -2.45355777351237458461 0.00000000000000000000
0.00757974571754058395 -0.80995088617709554146 0.00000000000000000000
1.24154069624864460408 -1.79039208802263138942 0.00000000000000000000
0.23516977291068302813 -0.55511826474058401093 0.00000000000000000000
0.70189633058820533051 -2.78111281526846809697 0.00000000000000000000
-0.18979606387721176253 -1.63608780541775278294 0.00000000000000000000
1.73396323146480768607 -3.06292836996696049567 0.00000000000000000000
0.54098880520987358000 -0.53036371637925594502 0.00000000000000000000
-0.31362159899173591704 -2.93216229023265695375 0.00000000000000000000
-0.13933492544269659996 -0.40338991285339598214 0.00000000000000000000
1.64269401951301086129 -2.38089312764751559470 0.00000000000000000000
0.27138560158113600451 -0.38090747416346787402 0.00000000000000000000
1.14307538923436546874 -1.31075664322721996413 0.00000000000000000000
1.13887520331020652975 -3.05490607704632610719 0.00000000000000000000
0.28800565585406834312 -2.99888013850187151732 0.00000000000000000000
0.06501282283026857400 -0.34346536340443450941 0.00000000000000000000
-0.32352673761707800848 -1.08777434674479933641 0.00000000000000000000
-0.39045732335167399052 -2.19723584888371670232 0.00000000000000000000
0.93671710734547530830 -1.97043074406384666197 0.00000000000000000000
0.52296955609938511333 -1.11437745238891361410 0.00000000000000000000
0.43455521874369124058 -2.19620118349853576944 0.00000000000000000000
0.15360311183281485925 -1.33754805737698245771 0.00000000000000000000
0.80538089697522963206 -1.43301790143141705158 0.00000000000000000000
0.79880368644923915866 -2.33643815295984103031 0.00000000000000000000
0.26634825315357163467 -1.00479443196955253725 0.00000000000000000000
0.13760432895291374589 -1.85036771434628355415 0.00000000000000000000
1.49890688475373967670 -1.74160871111158455093 0.00000000000000000000
0.09909760643281043113 -0.23671146366586251486 0.00000000000000000000
0.84254241772667759491 -3.17311796143040947271 0.00000000000000000000
-0.51865189781923493051 -1.80097241291307685884 0.00000000000000000000
1.91881556325428936916 -2.76953542068139269006 0.00000000000000000000
0.23202892631680357982 -0.23653944032956403243 0.00000000000000000000
-0.01076473160100281656 -3.19427331132986136453 0.00000000000000000000
-0.38331841306449254692 -0.74687338406438619209 0.00000000000000000000
1.47202002175553237073 -3.28226124049667333793 0.00000000000000000000
1.01861336131628066326 -0.98250277954956499737 0.00000000000000000000
-0.56211922698079264116 -2.59573014452279871023 0.00000000000000000000
-0.01389806253908324775 -0.19483214553256300583 0.00000000000000000000
1.27664656125092323968 -2.17697138389323763263 0.00000000000000000000
0.41739824963695254523 -0.71914038433757965230 0.00000000000000000000
0.37224123135510817084 -2.60771555546492583844 0.00000000000000000000
-0.07861060772382683082 -1.19856768144519909569 0.00000000000000000000
0.94588411379022707681 -1.34093184494467143608 0.00000000000000000000
0.98032576151651951157 -2.66443400361167048729 0.00000000000000000000
0.14678670469626939332 -0.66633840951548173326 0.00000000000000000000
-0.08283664828898479326 -2.04389682749377943338 0.00000000000000000000
2.00903838040693383249 -3.34480893317910066287 0.00000000000000000000
0.39723421626041471866 -0.32417180832730818629 0.00000000000000000000
-0.54400154508556541888 -3.20079203209876128611 0.00000000000000000000
-0.14627827022508180232 -0.22054339797513228261 0.00000000000000000000
1.77334129036108389954 -2.16678217237433967668 0.00000000000000000000
0.11889923708024532911 -0.18406537534548225721 0.00000000000000000000
0.52073166322985653398 -3.24707314818556413982 0.00000000000000000000
-0.56278371082416434046 -1.38547059816169104707 0.00000000000000000000
1.36040400593744426061 -2.88458046642909948787 0.00000000000000000000
0.79011423778023703868 -0.93187864256056196499 0.00000000000000000000
-0.20950557771910924276 -2.50990940874407097994 0.00000000000000000000
-0.01019117395417918313 -0.50884086231877190265 0.00000000000000000000
1.57361143476295550769 -2.67949336598928677944 0.00000000000000000000
0.46813301640284360472 -0.57369031635030298677 0.00000000000000000000
0.01084704887935733844 -2.81862192151654689098 0.00000000000000000000
-0.16273426439744861915 -0.74624387160441818523 0.00000000000000000000
0.71491551647886242282 -1.61744280494823988725 0.00000000000000000000
0.68715190274070281351 -1.97801846472699049961 0.00000000000000000000
0.41750858610807833893 -1.26277069465963753814 0.00000000000000000000
0.37215950121246477167 -1.84604992819279867255 0.00000000000000000000
1.01695870351248185415 -2.30228330143317583278 0.00000000000000000000
0.66676130250668774746 -1.12089490456281537512 0.00000000000000000000
0.20200066211289316453 -2.19371425983744439137 0.00000000000000000000
0.12367640930909237773 -1.00695765731610253901 0.00000000000000000000
1.93561735526092459914 -2.46700155218477057417 0.00000000000000000000
0.12426722328880260293 -0.15047048122672440629 0.00000000000000000000
0.27328459739969113151 -3.30163714578026379343 0.00000000000000000000
-0.55743069659318389419 -1.09241730323674279823 0.00000000000000000000
1.17701067490180633079 -3.33861353079941203248 0.00000000000000000000
-0.65931554265079239663 -2.22206733879452800196 0.00000000000000000000
1.38351628674637416871 -1.39121820420539310525 0.00000000000000000000
0.03068006732251598104 -0.14601899275142102286 0.00000000000000000000
2.03832949162337762061 -3.06807957632874250820 0.00000000000000000000
0.24564117265517049216 -0.21622257165203173646 0.00000000000000000000
-0.27247785696687193413 -3.26491100606250528315 0.00000000000000000000
-0.31954220043050091116 -0.48854584659620875486 0.00000000000000000000
1.74200586395416912033 -3.38538844434773178449 0.00000000000000000000
-0.62190052992844191415 -2.90465511833343770220 0.00000000000000000000
0.79328162392576972994 -0.69403886501720735147 0.00000000000000000000
-0.05677482014500277729 -0.15926937690138248671 0.00000000000000000000
1.01804134500339693581 -1.76646028050902437201 0.00000000000000000000
0.34211900116411009254 -0.85768928049608117448 0.00000000000000000000
0.64801033125010765179 -2.49882610295438079007 0.00000000000000000000
0.00420223656471937698 -1.59470285855805271602 0.00000000000000000000
1.49188293325942922252 -2.05086897839892090545 0.00000000000000000000
0.23230589850116187267 -0.41570995751825129405 0.00000000000000000000
0.54855583377537697753 -2.96499840111771684192 0.00000000000000000000
-0.32852166375779556784 -1.41892106141087426252 0.00000000000000000000
1.20835996040221593795 -1.54119811301493458977 0.00000000000000000000
0.13885304065532644291 -0.44596514279580368179 0.00000000000000000000
0.91550735294199458991 -2.91873398537027828326 0.00000000000000000000
-0.29360055715629873596 -1.92291945386556650810 0.00000000000000000000
0.33300555469077430804 -1.45822303823940835343 0.00000000000000000000
