# vtk DataFile Version 3.0
    
ASCII
DATASET UNSTRUCTURED_GRID
POINTS 13 float
0 0 0
1 0 0
1 1 0
0 1 0
0.5 0 0
1 0.5 0
0.5 1 0
0 0.5 0
0.5 0.5 0
0.25 0.75 0
0.75 0.75 0
0.75 0.25 0
0.25 0.25 0
CELLS 16 64
3 12 9 7
3 8 9 12
3 3 9 6
3 0 12 7
3 2 10 5
3 1 11 4
3 6 9 8
3 6 8 10
3 5 10 8
3 4 8 12
3 5 8 11
3 4 11 8
3 0 4 12
3 1 5 11
3 3 7 9
3 2 6 10
CELL_TYPES 16
5
5
5
5
5
5
5
5
5
5
5
5
5
5
5
5
POINT_DATA 13
VECTORS displacement double
-0.06158709487563002183 0.00000151573960993800 0.00000000000000000000
0.43840742950670796851 0.00000151574019690869 0.00000000000000000000
0.43840742950502559205 -0.00000151574021114660 0.00000000000000000000
-0.06158709487731255094 -0.00000151573962424657 0.00000000000000000000
0.18658990619422782808 -0.00000065103289382490 0.00000000000000000000
0.31159007985816095099 0.00000000000000709343 0.00000000000000000000
0.18658990619843421332 0.00000065103290802172 0.00000000000000000000
0.06158943849076238541 0.00000000000000714696 0.00000000000000000000
0.18476948809041990329 -0.00000000000174673246 0.00000000000000000000
0.09648142128227561731 0.01988566246647350405 0.00000000000000000000
0.28033888119862943045 0.01988565929461245246 0.00000000000000000000
0.28033888119888683566 -0.01988565929690254766 0.00000000000000000000
0.09648142128016318209 -0.01988566246703074927 0.00000000000000000000
