# vtk DataFile Version 3.0
    
ASCII
DATASET UNSTRUCTURED_GRID
POINTS 1563 float
0 0 0
1 0 0
1 1 0
0 1 0
0.0294118 0 0
0.0588235 0 0
0.0882353 0 0
0.117647 0 0
0.147059 0 0
0.176471 0 0
0.205882 0 0
0.235294 0 0
0.264706 0 0
0.294118 0 0
0.323529 0 0
0.352941 0 0
0.382353 0 0
0.411765 0 0
0.441176 0 0
0.470588 0 0
0.5 0 0
0.529412 0 0
0.558824 0 0
0.588235 0 0
0.617647 0 0
0.647059 0 0
0.676471 0 0
0.705882 0 0
0.735294 0 0
0.764706 0 0
0.794118 0 0
0.823529 0 0
0.852941 0 0
0.882353 0 0
0.911765 0 0
0.941176 0 0
0.970588 0 0
1 0.0294118 0
1 0.0588235 0
1 0.0882353 0
1 0.117647 0
1 0.147059 0
1 0.176471 0
1 0.205882 0
1 0.235294 0
1 0.264706 0
1 0.294118 0
1 0.323529 0
1 0.352941 0
1 0.382353 0
1 0.411765 0
1 0.441176 0
1 0.470588 0
1 0.5 0
1 0.529412 0
1 0.558824 0
1 0.588235 0
1 0.617647 0
1 0.647059 0
1 0.676471 0
1 0.705882 0
1 0.735294 0
1 0.764706 0
1 0.794118 0
1 0.823529 0
1 0.852941 0
1 0.882353 0
1 0.911765 0
1 0.941176 0
1 0.970588 0
0.970588 1 0
0.941176 1 0
0.911765 1 0
0.882353 1 0
0.852941 1 0
0.823529 1 0
0.794118 1 0
0.764706 1 0
0.735294 1 0
0.705882 1 0
0.676471 1 0
0.647059 1 0
0.617647 1 0
0.588235 1 0
0.558824 1 0
0.529412 1 0
0.5 1 0
0.470588 1 0
0.441176 1 0
0.411765 1 0
0.382353 1 0
0.352941 1 0
0.323529 1 0
0.294118 1 0
0.264706 1 0
0.235294 1 0
0.205882 1 0
0.176471 1 0
0.147059 1 0
0.117647 1 0
0.0882353 1 0
0.0588235 1 0
0.0294118 1 0
0 0.970588 0
0 0.941176 0
0 0.911765 0
0 0.882353 0
0 0.852941 0
0 0.823529 0
0 0.794118 0
0 0.764706 0
0 0.735294 0
0 0.705882 0
0 0.676471 0
0 0.647059 0
0 0.617647 0
0 0.588235 0
0 0.558824 0
0 0.529412 0
0 0.5 0
0 0.470588 0
0 0.441176 0
0 0.411765 0
0 0.382353 0
0 0.352941 0
0 0.323529 0
0 0.294118 0
0 0.264706 0
0 0.235294 0
0 0.205882 0
0 0.176471 0
0 0.147059 0
0 0.117647 0
0 0.0882353 0
0 0.0588235 0
0 0.0294118 0
0.5 0.5 0
0.711945 0.7057 0
0.2943 0.711945 0
0.7057 0.288055 0
0.288055 0.2943 0
0.501524 0.785241 0
0.214759 0.501524 0
0.785241 0.498476 0
0.498476 0.214759 0
0.827558 0.828582 0
0.171418 0.827558 0
0.828582 0.172442 0
0.172442 0.171418 0
0.558755 0.64605 0
0.351564 0.563767 0
0.640165 0.433057 0
0.433057 0.359835 0
0.638221 0.840251 0
0.159749 0.638221 0
0.840251 0.361779 0
0.361779 0.159749 0
0.845884 0.639674 0
0.360326 0.845884 0
0.639674 0.154116 0
0.154116 0.360326 0
0.444435 0.66329 0
0.666198 0.558758 0
0.335607 0.443942 0
0.560599 0.328275 0
0.534225 0.888403 0
0.111597 0.534225 0
0.888403 0.465775 0
0.465775 0.111597 0
0.739031 0.89096 0
0.10904 0.739031 0
0.89096 0.260969 0
0.260969 0.10904 0
0.89096 0.739031 0
0.739031 0.10904 0
0.260969 0.89096 0
0.10904 0.260969 0
0.603568 0.746084 0
0.253916 0.603568 0
0.739641 0.399616 0
0.399616 0.260359 0
0.899846 0.102006 0
0.102006 0.100154 0
0.897994 0.899846 0
0.100154 0.897994 0
0.744447 0.609727 0
0.390273 0.744447 0
0.609727 0.255553 0
0.255553 0.390273 0
0.439016 0.902868 0
0.902868 0.560984 0
0.0971321 0.439016 0
0.560984 0.0971321 0
0.742561 0.797221 0
0.202779 0.742561 0
0.797221 0.257439 0
0.257439 0.202779 0
0.801625 0.724869 0
0.275131 0.801625 0
0.724869 0.198375 0
0.198375 0.275131 0
0.493047 0.591572 0
0.574282 0.552595 0
0.409669 0.491076 0
0.548974 0.423551 0
0.647844 0.643152 0
0.357763 0.648301 0
0.643152 0.352156 0
0.348114 0.357479 0
0.819708 0.91746 0
0.0825405 0.819708 0
0.91746 0.180292 0
0.180292 0.0825405 0
0.820511 0.0831824 0
0.916818 0.820511 0
0.0831824 0.179489 0
0.179489 0.916818 0
0.514341 0.702214 0
0.297786 0.514341 0
0.700557 0.483802 0
0.48477 0.298187 0
0.602134 0.917588 0
0.0824118 0.602134 0
0.917588 0.397866 0
0.397866 0.0824118 0
0.921306 0.658416 0
0.658416 0.0786942 0
0.341584 0.921306 0
0.0786942 0.341584 0
0.436658 0.82364 0
0.82364 0.563342 0
0.17636 0.436658 0
0.563342 0.17636 0
0.46055 0.4324 0
0.568503 0.818429 0
0.181571 0.568503 0
0.818429 0.431497 0
0.431497 0.181571 0
0.668533 0.776213 0
0.223787 0.668533 0
0.776213 0.331467 0
0.331467 0.223787 0
0.681627 0.9312 0
0.0687998 0.681627 0
0.9312 0.318373 0
0.318373 0.0687998 0
0.42789 0.55846 0
0.587504 0.479856 0
0.501485 0.37375 0
0.448846 0.736852 0
0.73361 0.549476 0
0.263148 0.448846 0
0.559229 0.271117 0
0.397309 0.415692 0
0.496461 0.941598 0
0.0584022 0.496461 0
0.941598 0.503539 0
0.503539 0.0584022 0
0.40851 0.618614 0
0.493038 0.843653 0
0.156347 0.493038 0
0.843653 0.506962 0
0.506962 0.156347 0
0.703418 0.846442 0
0.153558 0.703418 0
0.846442 0.296582 0
0.296582 0.153558 0
0.837612 0.765624 0
0.234376 0.837612 0
0.765624 0.162388 0
0.162388 0.234376 0
0.762636 0.671528 0
0.328472 0.762636 0
0.671528 0.237364 0
0.237364 0.328472 0
0.944379 0.604025 0
0.604025 0.0556207 0
0.395975 0.944379 0
0.0556207 0.395975 0
0.645402 0.70184 0
0.29816 0.645402 0
0.70184 0.354598 0
0.354598 0.29816 0
0.610593 0.598871 0
0.598871 0.389407 0
0.645333 0.511147 0
0.943666 0.0605907 0
0.0605907 0.0563344 0
0.939409 0.943666 0
0.0563344 0.939409 0
0.556467 0.939746 0
0.0602537 0.556467 0
0.939746 0.443533 0
0.443533 0.0602537 0
0.772706 0.843635 0
0.156365 0.772706 0
0.843635 0.227294 0
0.227294 0.156365 0
0.763201 0.943297 0
0.0567032 0.763201 0
0.943297 0.236799 0
0.236799 0.0567032 0
0.942587 0.76478 0
0.76478 0.0574128 0
0.23522 0.942587 0
0.0574128 0.23522 0
0.849176 0.695359 0
0.304641 0.849176 0
0.695359 0.150824 0
0.150824 0.304641 0
0.510076 0.644072 0
0.355471 0.506803 0
0.572723 0.698696 0
0.301304 0.572723 0
0.694815 0.431071 0
0.429557 0.303323 0
0.547786 0.741902 0
0.258098 0.547786 0
0.741902 0.452214 0
0.452214 0.258098 0
0.862272 0.942622 0
0.0573784 0.862272 0
0.942622 0.137728 0
0.137728 0.0573784 0
0.86418 0.0556396 0
0.0556396 0.13582 0
0.94436 0.86418 0
0.13582 0.94436 0
0.693987 0.60661 0
0.394519 0.690189 0
0.60661 0.306013 0
0.306192 0.393906 0
0.582894 0.870651 0
0.129349 0.582894 0
0.870651 0.417106 0
0.417106 0.129349 0
0.749682 0.742289 0
0.257711 0.749682 0
0.742289 0.250318 0
0.250318 0.257711 0
0.618939 0.794176 0
0.205824 0.618939 0
0.794176 0.381061 0
0.381061 0.205824 0
0.718238 0.0544148 0
0.945585 0.718238 0
0.0544148 0.281762 0
0.281762 0.945585 0
0.855734 0.883519 0
0.883519 0.144266 0
0.116481 0.855734 0
0.144266 0.116481 0
0.52272 0.549803 0
0.7992 0.607488 0
0.392512 0.7992 0
0.607488 0.2008 0
0.2008 0.392512 0
0.791768 0.792305 0
0.207695 0.791768 0
0.792305 0.208232 0
0.208232 0.207695 0
0.711166 0.655473 0
0.344527 0.711166 0
0.655473 0.288834 0
0.288834 0.344527 0
0.887737 0.612317 0
0.612317 0.112263 0
0.387683 0.887737 0
0.112263 0.387683 0
0.542067 0.595368 0
0.506623 0.452965 0
0.808459 0.673805 0
0.326195 0.808459 0
0.673805 0.191541 0
0.191541 0.326195 0
0.452923 0.514891 0
0.606985 0.662661 0
0.334059 0.608733 0
0.662661 0.393015 0
0.391267 0.334059 0
0.951283 0.553118 0
0.553118 0.0487169 0
0.446882 0.951283 0
0.0487169 0.446882 0
0.871807 0.807795 0
0.192205 0.871807 0
0.807795 0.128193 0
0.128193 0.192205 0
0.554532 0.507814 0
0.488838 0.886364 0
0.113636 0.488838 0
0.886364 0.511162 0
0.511162 0.113636 0
0.429926 0.777022 0
0.777022 0.570074 0
0.222978 0.429926 0
0.570074 0.222978 0
0.671652 0.881606 0
0.118394 0.671652 0
0.881606 0.328348 0
0.328348 0.118394 0
0.722828 0.951973 0
0.048027 0.722828 0
0.951973 0.277172 0
0.277172 0.048027 0
0.454615 0.617666 0
0.622012 0.544386 0
0.639989 0.955092 0
0.0449078 0.639989 0
0.955092 0.360011 0
0.360011 0.0449078 0
0.376792 0.458755 0
0.594299 0.435687 0
0.545904 0.380241 0
0.807075 0.873062 0
0.126938 0.807075 0
0.873062 0.192925 0
0.192925 0.126938 0
0.705159 0.751579 0
0.248421 0.705159 0
0.751579 0.294841 0
0.294841 0.248421 0
0.855347 0.108649 0
0.891351 0.855347 0
0.108649 0.144653 0
0.144653 0.891351 0
0.353494 0.40232 0
0.3914 0.533366 0
0.47076 0.339677 0
0.51838 0.325807 0
0.808824 0.959187 0
0.0408126 0.808824 0
0.959187 0.191176 0
0.191176 0.0408126 0
0.810929 0.0403502 0
0.0403502 0.189071 0
0.95965 0.810929 0
0.189071 0.95965 0
0.476781 0.549567 0
0.422585 0.449678 0
0.497599 0.736818 0
0.471495 0.696378 0
0.263182 0.497599 0
0.303622 0.471495 0
0.695313 0.527992 0
0.736934 0.507488 0
0.506988 0.261828 0
0.464285 0.47428 0
0.461302 0.388416 0
0.651225 0.600111 0
0.598608 0.347326 0
0.537314 0.845116 0
0.154884 0.537314 0
0.845116 0.462686 0
0.462686 0.154884 0
0.577036 0.777151 0
0.222849 0.577036 0
0.777151 0.422964 0
0.422964 0.222849 0
0.881936 0.662529 0
0.662529 0.118064 0
0.337471 0.881936 0
0.118064 0.337471 0
0.451341 0.86275 0
0.13725 0.451341 0
0.86275 0.548659 0
0.548659 0.13725 0
0.960372 0.644443 0
0.644443 0.0396279 0
0.355557 0.960372 0
0.0396279 0.355557 0
0.846522 0.599816 0
0.599816 0.153478 0
0.400184 0.846522 0
0.153478 0.400184 0
0.386997 0.374257 0
0.592912 0.958647 0
0.0413528 0.592912 0
0.958647 0.407088 0
0.407088 0.0413528 0
0.663994 0.467063 0
0.644459 0.744792 0
0.255208 0.644459 0
0.744792 0.355541 0
0.355541 0.255208 0
0.779383 0.903776 0
0.0962236 0.779383 0
0.903776 0.220617 0
0.220617 0.0962236 0
0.546572 0.466073 0
0.899581 0.777835 0
0.777835 0.100419 0
0.222165 0.899581 0
0.100419 0.222165 0
0.629309 0.884174 0
0.115826 0.629309 0
0.884174 0.370691 0
0.370691 0.115826 0
0.959784 0.0950586 0
0.0950586 0.0402162 0
0.904979 0.041213 0
0.904941 0.959784 0
0.0402162 0.904941 0
0.958787 0.904979 0
0.041213 0.0950207 0
0.0950207 0.958787 0
0.662952 0.818663 0
0.181337 0.662952 0
0.818663 0.337048 0
0.337048 0.181337 0
0.900568 0.699181 0
0.699181 0.0994321 0
0.300819 0.900568 0
0.0994321 0.300819 0
0.679582 0.676352 0
0.323648 0.679582 0
0.676352 0.320418 0
0.320418 0.323648 0
0.538038 0.794514 0
0.205486 0.538038 0
[...]
POINT_DATA 1563
VECTORS displacement double
0.00000032252300944230 0.00000030008530532204 0.00000000000000000000
0.00000638300813883982 -0.00000555307438988766 0.00000000000000000000
-0.00848800387985848559 -0.00000938091925965681 0.00000000000000000000
0.00424901935912992083 -0.00000195021642984310 0.00000000000000000000
0.00000129051460332117 0.00000201357046554017 0.00000000000000000000
0.00000139167772037113 0.00000224397914329674 0.00000000000000000000
0.00000194108268860329 0.00000290787640169501 0.00000000000000000000
0.00000179403963769193 0.00000287811569354839 0.00000000000000000000
0.00000224036265633305 0.00000342959659164186 0.00000000000000000000
0.00000239841778027238 0.00000350429840572202 0.00000000000000000000
0.00000238078008360466 0.00000365217155435620 0.00000000000000000000
0.00000265508641584124 0.00000388088942334734 0.00000000000000000000
0.00000273395853317970 0.00000398074417602717 0.00000000000000000000
0.00000286796217694453 0.00000406617300978138 0.00000000000000000000
0.00000292199208218265 0.00000417264789864503 0.00000000000000000000
0.00000306116866477555 0.00000420685607977356 0.00000000000000000000
0.00000317501926731537 0.00000426859860750076 0.00000000000000000000
0.00000321214550676650 0.00000427778692568390 0.00000000000000000000
0.00000337654533347531 0.00000428234079861789 0.00000000000000000000
0.00000339570917700179 0.00000431218479811889 0.00000000000000000000
0.00000354132829325146 0.00000414451631783359 0.00000000000000000000
0.00000354409669773163 0.00000421954297636719 0.00000000000000000000
0.00000366079177850697 0.00000406909588542073 0.00000000000000000000
0.00000370742268556563 0.00000398022602153780 0.00000000000000000000
0.00000374887333113712 0.00000385277345154948 0.00000000000000000000
0.00000383178376467373 0.00000368997797274476 0.00000000000000000000
0.00000386068765826889 0.00000349007634658701 0.00000000000000000000
0.00000395545027356420 0.00000331867186834785 0.00000000000000000000
0.00000385586541175998 0.00000301747505633583 0.00000000000000000000
0.00000400089062410929 0.00000280871710404305 0.00000000000000000000
0.00000400275181875788 0.00000235327493921169 0.00000000000000000000
0.00000404192446602879 0.00000211556385598772 0.00000000000000000000
0.00000395439418171517 0.00000160575776119587 0.00000000000000000000
0.00000416718812178375 0.00000096025176529112 0.00000000000000000000
0.00000392103450648951 0.00000068464234601222 0.00000000000000000000
0.00000431716659752318 -0.00000063988275152506 0.00000000000000000000
0.00000371504516203299 -0.00000067184340828617 0.00000000000000000000
-0.00765273641829371243 -0.00910876620320462578 0.00000000000000000000
-0.01422335923841265559 -0.01557085878025294898 0.00000000000000000000
-0.01951926642969854797 -0.02090924355304815685 0.00000000000000000000
-0.02296099571197172950 -0.02581803986683016763 0.00000000000000000000
-0.02555087484725562796 -0.02966968918158969029 0.00000000000000000000
-0.02688598820672757905 -0.03319534687989363769 0.00000000000000000000
-0.02700515998514693705 -0.03644804257792894769 0.00000000000000000000
-0.02651849228512487278 -0.03894906514266093661 0.00000000000000000000
-0.02525908544607496919 -0.04121615863072511377 0.00000000000000000000
-0.02335265951530235418 -0.04321970327009498625 0.00000000000000000000
-0.02080991523115949260 -0.04486663120024635826 0.00000000000000000000
-0.01799114254368983090 -0.04617182199487990940 0.00000000000000000000
-0.01478396077583660206 -0.04715288708540930213 0.00000000000000000000
-0.01127738659661564613 -0.04797232229312991397 0.00000000000000000000
-0.00775737770350887201 -0.04847017740904738942 0.00000000000000000000
-0.00395742313849040128 -0.04878746522613321840 0.00000000000000000000
-0.00005097036101164854 -0.04915774514756187513 0.00000000000000000000
0.00383845273660343711 -0.04883039342674353606 0.00000000000000000000
0.00757581004279006542 -0.04858115840373385813 0.00000000000000000000
0.01125417943761108930 -0.04802305981960529324 0.00000000000000000000
0.01471473586012772561 -0.04718160477459061586 0.00000000000000000000
0.01786577280239787235 -0.04624359890092822473 0.00000000000000000000
0.02067222597419449137 -0.04495924998455955862 0.00000000000000000000
0.02314969094732333144 -0.04332927983138468164 0.00000000000000000000
0.02501731846866717124 -0.04128442498572318375 0.00000000000000000000
0.02627775647838925810 -0.03915752933893976162 0.00000000000000000000
0.02671550216168061542 -0.03663053621264576731 0.00000000000000000000
0.02656403364549997370 -0.03347100550567048277 0.00000000000000000000
0.02520967707888255305 -0.02999214237710834396 0.00000000000000000000
0.02272747028733779207 -0.02608210243715167534 0.00000000000000000000
0.01921108604332033565 -0.02124308397717499311 0.00000000000000000000
0.01388784528312958511 -0.01614645982282168421 0.00000000000000000000
0.00694491085916359996 -0.00923127149295851351 0.00000000000000000000
0.00226536222255990793 -0.00000764358238248346 0.00000000000000000000
-0.00061155515979716135 -0.00000590248132529465 0.00000000000000000000
0.00015849588306815487 -0.00000533440476933563 0.00000000000000000000
-0.00004771606197084832 -0.00000478265752475811 0.00000000000000000000
0.00000775323162438557 -0.00000416953517336329 0.00000000000000000000
-0.00000718593882231833 -0.00000364111931458488 0.00000000000000000000
-0.00000319082915400948 -0.00000343244021757870 0.00000000000000000000
-0.00000415214045856871 -0.00000298108950288491 0.00000000000000000000
-0.00000388127233674762 -0.00000272368365221618 0.00000000000000000000
-0.00000395644824402464 -0.00000243785945351841 0.00000000000000000000
-0.00000386249263728544 -0.00000228213053761955 0.00000000000000000000
-0.00000383753780597296 -0.00000207570274667564 0.00000000000000000000
-0.00000374625193877431 -0.00000191369464042033 0.00000000000000000000
-0.00000374783286583025 -0.00000180862202386755 0.00000000000000000000
-0.00000362643567919374 -0.00000167117684430993 0.00000000000000000000
-0.00000355759032799607 -0.00000156261874655711 0.00000000000000000000
-0.00000354212630632178 -0.00000162466444446880 0.00000000000000000000
-0.00000341169734291435 -0.00000145028082159343 0.00000000000000000000
-0.00000334313696503941 -0.00000149983798442413 0.00000000000000000000
-0.00000325595987477056 -0.00000148671622179374 0.00000000000000000000
-0.00000315729881866789 -0.00000150482179534090 0.00000000000000000000
-0.00000306842199115920 -0.00000156227848923005 0.00000000000000000000
-0.00000292917030259021 -0.00000160600887418460 0.00000000000000000000
-0.00000285207585720704 -0.00000172143845121337 0.00000000000000000000
-0.00000277283959188024 -0.00000177140638133955 0.00000000000000000000
-0.00000252524935084875 -0.00000192141213272070 0.00000000000000000000
-0.00000280904202129562 -0.00000210124832300948 0.00000000000000000000
-0.00000082038269896834 -0.00000222335115954626 0.00000000000000000000
-0.00000801548727860646 -0.00000243860238916230 0.00000000000000000000
0.00001989957894581174 -0.00000277612600761810 0.00000000000000000000
-0.00008330221959940154 -0.00000300168748118300 0.00000000000000000000
0.00030282874915181501 -0.00000314274495155974 0.00000000000000000000
-0.00113841025196540976 -0.00000507337507377905 0.00000000000000000000
-0.00112252866039518084 0.00000198408455401458 0.00000000000000000000
0.00031452899150715888 0.00000098866983566412 0.00000000000000000000
-0.00007081047831883340 0.00000200937543869736 0.00000000000000000000
0.00003208042315137593 0.00000168581863502176 0.00000000000000000000
0.00000389136919563539 0.00000220835687836351 0.00000000000000000000
0.00001106832194315538 0.00000231464855208123 0.00000000000000000000
0.00000887761646059390 0.00000229042389506433 0.00000000000000000000
0.00000902293274702238 0.00000256902560263480 0.00000000000000000000
0.00000867518268511546 0.00000263522700994854 0.00000000000000000000
0.00000842969515523534 0.00000270267355205414 0.00000000000000000000
0.00000819723003592521 0.00000276962494655536 0.00000000000000000000
0.00000794080131463755 0.00000283680783108533 0.00000000000000000000
0.00000768037739130214 0.00000292723463604785 0.00000000000000000000
0.00000748294039528461 0.00000292051526733025 0.00000000000000000000
0.00000716539304739014 0.00000296107869815501 0.00000000000000000000
0.00000698956135685685 0.00000310342214013153 0.00000000000000000000
0.00000672909512995992 0.00000280940963646671 0.00000000000000000000
0.00000648831946686048 0.00000311438845889470 0.00000000000000000000
0.00000624290503248844 0.00000292886725533014 0.00000000000000000000
0.00000601513096643135 0.00000294368330363580 0.00000000000000000000
0.00000577384317685016 0.00000292349625482064 0.00000000000000000000
0.00000551614796935400 0.00000283041750374490 0.00000000000000000000
0.00000527161669532208 0.00000276812168839507 0.00000000000000000000
0.00000502082651254305 0.00000267997748524630 0.00000000000000000000
0.00000476718900343925 0.00000267046860825217 0.00000000000000000000
0.00000451777272227365 0.00000252900859119492 0.00000000000000000000
0.00000418157153158628 0.00000231328868447469 0.00000000000000000000
0.00000396734862883571 0.00000231371000288375 0.00000000000000000000
0.00000366747406813552 0.00000214090793679783 0.00000000000000000000
0.00000318676507015002 0.00000179152069424105 0.00000000000000000000
0.00000307193775419265 0.00000193417502071870 0.00000000000000000000
0.00000232011767936850 0.00000128739282651531 0.00000000000000000000
0.00000211347743913756 0.00000130286611587589 0.00000000000000000000
-0.00005848016555073943 0.09126875922279878428 0.00000000000000000000
0.01778305977864291787 0.05633356439767359808 0.00000000000000000000
-0.00631809869970625937 0.06438322807570606710 0.00000000000000000000
-0.01791255047376696941 0.05666377798052143339 0.00000000000000000000
0.00635694087214379311 0.06459198958933366763 0.00000000000000000000
0.00481516527794767502 0.05881953729361395072 0.00000000000000000000
-0.00013537355140223750 0.06410308628124862518 0.00000000000000000000
-0.00031074227469579663 0.04935768102937587026 0.00000000000000000000
-0.00462690532477712246 0.05894570996828316783 0.00000000000000000000
0.02643874521103195541 0.02136230310159898532 0.00000000000000000000
-0.00977416520747542705 0.03421220244524221521 0.00000000000000000000
-0.02674695907689969565 0.02142451734394817259 0.00000000000000000000
0.00979889484529084670 0.03420530412261283543 0.00000000000000000000
0.00639781361490698863 0.08051224707664572655 0.00000000000000000000
-0.00144945951454850119 0.08363418513430299905 0.00000000000000000000
-0.00527942643692530522 0.07921393885489279307 0.00000000000000000000
-0.00024027026149181507 0.08281039562639436191 0.00000000000000000000
0.01394296781780635097 0.04120279640497525458 0.00000000000000000000
-0.00529397698575673203 0.04844171684310164677 0.00000000000000000000
-0.01714772918864199136 0.02891224710485080021 0.00000000000000000000
0.00383580424881922039 0.04485706494081462270 0.00000000000000000000
0.01720254702979118200 0.02674488068093551843 0.00000000000000000000
-0.00384852172000316184 0.04339025184949166919 0.00000000000000000000
-0.01391555958622613109 0.03981822991871231121 0.00000000000000000000
0.00524834703956308934 0.04700813846029436999 0.00000000000000000000
0.00072376160542664270 0.08023615648247613141 0.00000000000000000000
0.00505821511245130306 0.07562157498896468488 0.00000000000000000000
0.00141655217126418487 0.08228948307753597424 0.00000000000000000000
-0.00734216610308413564 0.07717630482105164447 0.00000000000000000000
0.00549617947570907317 0.03281292282510774733 0.00000000000000000000
-0.00112782611426113372 0.03821145541437473425 0.00000000000000000000
-0.00467390077453305741 0.01105095297196314122 0.00000000000000000000
-0.00182937154852164108 0.03351147097243944994 0.00000000000000000000
0.01752603319683443406 0.02340391525373982165 0.00000000000000000000
-0.00712949856051985076 0.03133559963827874106 0.00000000000000000000
-0.02666346210405412531 0.00851823932159048378 0.00000000000000000000
0.00695188849142393608 0.02914569962313273699 0.00000000000000000000
0.02643458485020866444 0.00832527068003497892 0.00000000000000000000
-0.01761449208177963410 0.02345264560325137360 0.00000000000000000000
-0.00694218048806138910 0.02913704883862276718 0.00000000000000000000
0.00714577797173996179 0.03131602929305903754 0.00000000000000000000
0.01196340877530599478 0.06266121325724201274 0.00000000000000000000
-0.00401917076498958803 0.06886279228072006431 0.00000000000000000000
-0.01084572248878978851 0.05949814488545068086 0.00000000000000000000
0.00175155490315272167 0.06726437136352263202 0.00000000000000000000
-0.02414543578246633460 0.00382743738551184461 0.00000000000000000000
0.00783553666820155197 0.01689253176309596025 0.00000000000000000000
0.02350380494428927491 0.00386536832027865223 0.00000000000000000000
-0.00781133300379903417 0.01685301932239065617 0.00000000000000000000
0.01171213116329616888 0.05777691989447892446 0.00000000000000000000
-0.00234397729011032174 0.06594085510068711797 0.00000000000000000000
-0.01249831272482257449 0.06258403991688288315 0.00000000000000000000
0.00410302389087022212 0.06884621705674148773 0.00000000000000000000
0.00039740928982762158 0.02934526851169863906 0.00000000000000000000
0.00809628491165759190 0.00425892783215248063 0.00000000000000000000
0.00176705122090485556 0.03352233409091529004 0.00000000000000000000
-0.00642317740598209730 0.02826246449918012535 0.00000000000000000000
0.02223711945439332816 0.03937891683547387750 0.00000000000000000000
-0.00878558860391581709 0.04905773857553143158 0.00000000000000000000
-0.02425403877541484898 0.03581562439507316592 0.00000000000000000000
0.00852940259995066397 0.04798177973614997649 0.00000000000000000000
0.02335505251602487675 0.03602411378899695454 0.00000000000000000000
-0.00797780045343512989 0.04863606307452839755 0.00000000000000000000
-0.02120758400201548655 0.04113866957761198873 0.00000000000000000000
0.00842259741370401244 0.05017142497656076894 0.00000000000000000000
0.00202259674037397197 0.08788834229557640487 0.00000000000000000000
0.00275414381066590996 0.08670630436299252286 0.00000000000000000000
-0.00003610384713820247 0.08946650986438473008 0.00000000000000000000
-0.00335786290384509911 0.08717117512392053014 0.00000000000000000000
0.01069621985442387180 0.07260127755715295450 0.00000000000000000000
-0.00292344074570116685 0.07782223455147542490 0.00000000000000000000
-0.01087677522134669617 0.07280230434401560591 0.00000000000000000000
0.00309059263299939213 0.07768565284158485129 0.00000000000000000000
0.01842993574616158536 0.01234366172735212701 0.00000000000000000000
-0.00720578242772405841 0.02072286938411198667 0.00000000000000000000
-0.02894740904126932857 -0.00078810770132871800 0.00000000000000000000
0.00740966104086077798 0.01958646750202006764 0.00000000000000000000
-0.01868252147281516951 0.01239065893670404130 0.00000000000000000000
0.02859218288044340639 -0.00084111175761775560 0.00000000000000000000
0.00724661801491868068 0.02077622093832434680 0.00000000000000000000
-0.00743850366194204193 0.01962907767721512944 0.00000000000000000000
0.00510649128015894238 0.07439083445477541467 0.00000000000000000000
-0.00049692296783185319 0.07858126148091292007 0.00000000000000000000
-0.00165102451392556970 0.07048082928290076710 0.00000000000000000000
-0.00331546018852341140 0.07495041731029834786 0.00000000000000000000
0.00762237024384060380 0.02334055625377077017 0.00000000000000000000
-0.00268413817323308324 0.02848971159923370522 0.00000000000000000000
-0.01352293020589773187 -0.00254799739838141269 0.00000000000000000000
0.00125688519307647767 0.02503953277341913405 0.00000000000000000000
0.01981036780447420487 -0.00417266205488925259 0.00000000000000000000
-0.01007968956110092545 0.02069064925795070092 0.00000000000000000000
-0.00320037325579047849 0.02332986409065431962 0.00000000000000000000
0.00393838742512442330 0.02617924725147719248 0.00000000000000000000
0.00042235095916609566 0.05014970697274177824 0.00000000000000000000
0.00797980483565002841 0.03628632545116124847 0.00000000000000000000
0.00251230574481588198 0.05484046908289112038 0.00000000000000000000
-0.00900927376626217691 0.04855284560654319487 0.00000000000000000000
-0.00083537201787697857 0.08946936330344935906 0.00000000000000000000
0.00935857571528325716 0.04956319967675673621 0.00000000000000000000
-0.00277872058531436483 0.05592839202273844346 0.00000000000000000000
-0.00869569790025243039 0.03802251954017277918 0.00000000000000000000
-0.00013526914365695475 0.05141127660337976857 0.00000000000000000000
0.01703971628623179857 0.05167044572735881441 0.00000000000000000000
-0.00656311481075907976 0.05936314402854853123 0.00000000000000000000
-0.01840733751059306367 0.04649491389663218399 0.00000000000000000000
0.00553631035104754088 0.05715548648413293353 0.00000000000000000000
0.01009488184915774411 0.01744172727863480335 0.00000000000000000000
-0.00404129058115266365 0.02272743348458037410 0.00000000000000000000
-0.02227515155846904182 -0.00832355590117046275 0.00000000000000000000
0.00357658170924711472 0.02026488157625247824 0.00000000000000000000
-0.00006128383324832676 0.08899082930320284524 0.00000000000000000000
-0.00126686318053437219 0.08650745971723505789 0.00000000000000000000
-0.00314511383548432555 0.08475954407742393448 0.00000000000000000000
0.00113136622652981744 0.06867231107951712876 0.00000000000000000000
0.00529509362032265507 0.06260233169728245117 0.00000000000000000000
0.00194629860852099656 0.07249766630100325238 0.00000000000000000000
-0.00862856913619419741 0.06832347132387642241 0.00000000000000000000
0.00079507302580603123 0.08612213788282667426 0.00000000000000000000
0.00210352634947630346 0.01802301321961628788 0.00000000000000000000
0.00008047796349798172 0.02147126038749656157 0.00000000000000000000
0.00043090681193769242 -0.01485115725594534156 0.00000000000000000000
-0.00238617499109580744 0.01799187894290650569 0.00000000000000000000
-0.00070089541507767361 0.08402484717540428805 0.00000000000000000000
0.00386864978025885931 0.04509224228047976901 0.00000000000000000000
0.00024186902493991691 0.05053165907815201224 0.00000000000000000000
0.00085341193901450341 0.02941374672513023467 0.00000000000000000000
-0.00484129086213679061 0.04496646337170965430 0.00000000000000000000
0.01827468897601602915 0.03512824188968406702 0.00000000000000000000
-0.00736742728735635677 0.04341576264616062164 0.00000000000000000000
-0.02340986719004495287 0.02457880642304642246 0.00000000000000000000
0.00677130086183490992 0.04087628034482925637 0.00000000000000000000
0.02656219329596298806 0.02394743016966086394 0.00000000000000000000
-0.00899433276514816082 0.03881966450533114871 0.00000000000000000000
-0.02301312393992027694 0.03022454016780063910 0.00000000000000000000
0.00912639564632904826 0.04014456609271040144 0.00000000000000000000
0.01791572543751573932 0.04953022113633676754 0.00000000000000000000
-0.00564710397074974502 0.05942499258885280966 0.00000000000000000000
-0.01728235436877656461 0.05382759433072955430 0.00000000000000000000
0.00645016338149187463 0.06145403542939796571 0.00000000000000000000
0.01354692043636263055 -0.01604621162449512695 0.00000000000000000000
-0.00564964075818443628 0.01587360041605707234 0.00000000000000000000
-0.00097611975389005901 0.01711518479460224715 0.00000000000000000000
0.00196103596333637928 0.01979663502893860491 0.00000000000000000000
0.01356976862869185840 0.06595382221497088360 0.00000000000000000000
-0.00461418854213266338 0.07218067100811043080 0.00000000000000000000
-0.01347118713307854376 0.06420862619746457722 0.00000000000000000000