# vtk DataFile Version 3.0
    
ASCII
DATASET UNSTRUCTURED_GRID
POINTS 142 float
0 0 0
1 0 0
1 1 0
0 1 0
0.1 0 0
0.2 0 0
0.3 0 0
0.4 0 0
0.5 0 0
0.6 0 0
0.7 0 0
0.8 0 0
0.9 0 0
1 0.1 0
1 0.2 0
1 0.3 0
1 0.4 0
1 0.5 0
1 0.6 0
1 0.7 0
1 0.8 0
1 0.9 0
0.9 1 0
0.8 1 0
0.7 1 0
0.6 1 0
0.5 1 0
0.4 1 0
0.3 1 0
0.2 1 0
0.1 1 0
0 0.9 0
0 0.8 0
0 0.7 0
0 0.6 0
0 0.5 0
0 0.4 0
0 0.3 0
0 0.2 0
0 0.1 0
0.5 0.5 0
0.707143 0.707143 0
0.292857 0.707143 0
0.707143 0.292857 0
0.292857 0.292857 0
0.497 0.78488 0
0.21512 0.497 0
0.78488 0.503 0
0.503 0.21512 0
0.829497 0.829497 0
0.170503 0.829497 0
0.829497 0.170503 0
0.170503 0.170503 0
0.64071 0.848866 0
0.151134 0.64071 0
0.359205 0.848175 0
0.848175 0.640795 0
0.848866 0.35929 0
0.151825 0.359205 0
0.35929 0.151134 0
0.640795 0.151825 0
0.566986 0.640157 0
0.363936 0.572011 0
0.640157 0.433014 0
0.431769 0.356433 0
0.431587 0.659528 0
0.666173 0.558699 0
0.345738 0.434531 0
0.558699 0.333827 0
0.460465 0.890324 0
0.109676 0.460465 0
0.890324 0.539535 0
0.539535 0.109676 0
0.739074 0.902335 0
0.0976651 0.739074 0
0.902335 0.260926 0
0.260926 0.0976651 0
0.900559 0.740305 0
0.259695 0.900559 0
0.740305 0.0994409 0
0.0994409 0.259695 0
0.604121 0.745283 0
0.255748 0.607779 0
0.745283 0.395879 0
0.395879 0.254717 0
0.393407 0.746481 0
0.747312 0.605379 0
0.254177 0.393775 0
0.605379 0.252688 0
0.900122 0.900122 0
0.0998781 0.900122 0
0.900122 0.0998781 0
0.0998781 0.0998781 0
0.56908 0.916779 0
0.0832208 0.56908 0
0.916779 0.43092 0
0.43092 0.0832208 0
0.793413 0.720731 0
0.279067 0.793275 0
0.720731 0.206587 0
0.206835 0.279128 0
0.727794 0.801265 0
0.198735 0.727794 0
0.801265 0.272206 0
0.272206 0.198735 0
0.487185 0.589351 0
0.580327 0.541124 0
0.409677 0.491135 0
0.554918 0.426801 0
0.650232 0.640017 0
0.353859 0.654371 0
0.642499 0.348048 0
0.347016 0.354627 0
0.649773 0.933596 0
0.066404 0.649773 0
0.933596 0.350227 0
0.350227 0.066404 0
0.927812 0.644127 0
0.644127 0.0721883 0
0.355873 0.927812 0
0.0721883 0.355873 0
0.820102 0.920029 0
0.0799714 0.820102 0
0.920029 0.179898 0
0.179898 0.0799714 0
0.920029 0.820102 0
0.820102 0.0799714 0
0.179898 0.920029 0
0.0799714 0.179898 0
0.507721 0.698509 0
0.302103 0.508689 0
0.712239 0.495415 0
0.495238 0.287274 0
0.554275 0.837226 0
0.166875 0.55907 0
0.837226 0.445725 0
0.445725 0.162774 0
0.427519 0.817465 0
0.182699 0.427611 0
0.817673 0.572177 0
0.572177 0.182327 0
0.461024 0.432542 0
CELLS 242 968
3 108 141 68
3 1 13 91
3 0 4 92
3 2 22 89
3 3 31 90
3 1 91 12
3 0 92 39
3 2 89 21
3 3 90 30
3 68 141 64
3 65 129 85
3 66 131 86
3 67 130 87
3 68 132 88
3 62 107 105
3 62 105 65
3 63 106 108
3 63 66 106
3 129 45 85
3 130 46 87
3 131 47 86
3 132 48 88
3 54 82 102
3 53 81 101
3 59 84 104
3 57 83 103
3 42 102 82
3 41 101 81
3 44 104 84
3 43 103 83
3 56 97 86
3 55 98 85
3 60 99 88
3 58 100 87
3 64 141 67
3 26 27 69
3 35 36 70
3 17 18 71
3 8 9 72
3 18 117 71
3 9 118 72
3 27 119 69
3 36 120 70
3 63 131 66
3 64 132 68
3 41 86 97
3 42 85 98
3 43 88 99
3 44 87 100
3 62 65 110
3 64 67 112
3 67 141 107
3 40 105 107
3 40 108 106
3 56 71 117
3 60 72 118
3 55 69 119
3 58 70 120
3 23 24 73
3 32 33 74
3 14 15 75
3 5 6 76
3 19 20 77
3 10 11 79
3 28 29 78
3 37 38 80
3 26 69 93
3 35 70 94
3 17 71 95
3 8 72 96
3 56 77 97
3 55 78 98
3 60 79 99
3 58 80 100
3 45 133 69
3 46 134 70
3 47 135 71
3 48 136 72
3 61 109 81
3 62 110 82
3 63 111 83
3 64 112 84
3 49 73 101
3 50 74 102
3 51 75 103
3 52 76 104
3 41 81 109
3 42 82 110
3 43 83 111
3 44 84 112
3 61 106 109
3 66 109 106
3 63 108 111
3 68 111 108
3 25 26 93
3 34 35 94
3 16 17 95
3 7 8 96
3 45 137 85
3 47 139 86
3 46 138 87
3 48 140 88
3 23 73 121
3 32 74 122
3 14 75 123
3 5 76 124
3 20 125 77
3 11 126 79
3 29 127 78
3 38 128 80
3 54 102 74
3 53 101 73
3 59 104 76
3 57 103 75
3 49 97 77
3 50 98 78
3 51 99 79
3 52 100 80
3 13 14 123
3 22 23 121
3 4 5 124
3 31 32 122
3 20 21 125
3 11 12 126
3 29 30 127
3 38 39 128
3 69 133 93
3 70 134 94
3 71 135 95
3 72 136 96
3 13 123 91
3 4 124 92
3 22 121 89
3 31 122 90
3 21 89 125
3 12 91 126
3 30 90 127
3 39 92 128
3 49 101 97
3 50 102 98
3 51 103 99
3 52 104 100
3 61 81 129
3 62 82 130
3 63 83 131
3 64 84 132
3 45 69 137
3 46 70 138
3 55 137 69
3 58 138 70
3 47 71 139
3 48 72 140
3 56 139 71
3 60 140 72
3 24 113 73
3 33 114 74
3 55 119 78
3 53 73 113
3 54 74 114
3 56 117 77
3 58 120 80
3 60 118 79
3 28 78 119
3 19 77 117
3 37 80 120
3 10 79 118
3 15 115 75
3 6 116 76
3 57 75 115
3 59 76 116
3 45 129 81
3 46 130 82
3 47 131 83
3 48 132 84
3 61 129 105
3 65 105 129
3 62 130 107
3 67 107 130
3 49 121 73
3 50 122 74
3 49 77 125
3 51 123 75
3 50 78 127
3 52 124 76
3 51 79 126
3 52 80 128
3 53 133 81
3 45 81 133
3 54 134 82
3 46 82 134
3 47 83 135
3 57 135 83
3 59 136 84
3 48 84 136
3 65 85 110
3 42 110 85
3 66 86 109
3 41 109 86
3 67 87 112
3 68 88 111
3 44 112 87
3 43 111 88
3 41 97 101
3 42 98 102
3 43 99 103
3 44 100 104
3 49 89 121
3 50 90 122
3 49 125 89
3 50 127 90
3 51 91 123
3 51 126 91
3 52 92 124
3 52 128 92
3 40 106 105
3 61 105 106
3 25 93 113
3 34 94 114
3 53 113 93
3 54 114 94
3 16 95 115
3 7 96 116
3 57 115 95
3 59 116 96
3 24 25 113
3 33 34 114
3 15 16 115
3 6 7 116
3 18 19 117
3 9 10 118
3 27 28 119
3 36 37 120
3 55 85 137
3 56 86 139
3 58 87 138
3 60 88 140
3 53 93 133
3 54 94 134
3 57 95 135
3 59 96 136
3 40 141 108
3 40 107 141
CELL_TYPES 242
5
5
5
5
5
5
5
5
5
5
5
5
5
5
5
5
5
5
5
5
5
5
5
5
5
5
5
5
5
5
5
5
5
5
5
5
5
5
5
5
5
5
5
5
5
5
5
5
5
5
5
5
5
5
5
5
5
5
5
5
5
5
5
5
5
5
5
5
5
5
5
5
5
5
5
5
5
5
5
5
5
5
5
5
5
5
5
5
5
5
5
5
5
5
5
5
5
5
5
5
5
5
5
5
5
5
5
5
5
5
5
5
5
5
5
5
5
5
5
5
5
5
5
5
5
5
5
5
5
5
5
5
5
5
5
5
5
5
5
5
5
5
5
5
5
5
5
5
5
5
5
5
5
5
5
5
5
5
5
5
5
5
5
5
5
5
5
5
5
5
5
5
5
5
5
5
5
5
5
5
5
5
5
5
5
5
5
5
5
5
5
5
5
5
5
5
5
5
5
5
5
5
5
5
5
5
5
5
5
5
5
5
5
5
5
5
5
5
5
5
5
5
5
5
5
5
5
5
5
5
5
5
5
5
5
5
5
5
5
5
5
5
POINT_DATA 142
VECTORS displacement double
0.00000000025119996031 0.00000000024997512349 0.00000000000000000000
0.00000000149556949466 -0.00000000052298652474 0.00000000000000000000
1.00446514234248862607 1.00402450102464535497 0.00000000000000000000
-0.00000000052382233580 0.00000000149727950662 0.00000000000000000000
0.00000000017866093926 0.00000000088727066052 0.00000000000000000000
0.00000000018898897330 0.00000000119543946692 0.00000000000000000000
0.00000000024361478192 0.00000000142197182429 0.00000000000000000000
0.00000000022337637762 0.00000000158991640234 0.00000000000000000000
0.00000000024389529311 0.00000000172980822888 0.00000000000000000000
0.00000000025800931002 0.00000000179769107332 0.00000000000000000000
0.00000000023234192015 0.00000000183598849103 0.00000000000000000000
0.00000000025047915310 0.00000000173031679890 0.00000000000000000000
0.00000000039335707596 0.00000000145815406130 0.00000000000000000000
0.13316070306060678874 0.03540288886823650394 0.00000000000000000000
0.26416117283637785551 0.10663320891072698704 0.00000000000000000000
0.39373338621330938869 0.20284947226927918518 0.00000000000000000000
0.51844457378171338036 0.31410832593309895300 0.00000000000000000000
0.63135685068064162362 0.43373252979838639032 0.00000000000000000000
0.72950711005388024777 0.55350102224260300243 0.00000000000000000000
0.81658405624948504631 0.67535740121329168595 0.00000000000000000000
0.88954737938413308562 0.79111005415870838675 0.00000000000000000000
0.95232735492099462871 0.90179769692187561336 0.00000000000000000000
0.90220479699377698068 0.95197459556409103065 0.00000000000000000000
0.79168296527725900980 0.88950928282342978104 0.00000000000000000000
0.67556077801602432142 0.81648508646209227990 0.00000000000000000000
0.55321951760370768891 0.72908039906470845093 0.00000000000000000000
0.43286510719969989447 0.63002026760767115832 0.00000000000000000000
0.31591984583269444586 0.51950849132972354294 0.00000000000000000000
0.20366107245431444572 0.39428550405471635143 0.00000000000000000000
0.10696283963855823806 0.26443387495672926457 0.00000000000000000000
0.03551182271670075968 0.13326412493352610134 0.00000000000000000000
0.00000000145686979958 0.00000000039674752624 0.00000000000000000000
0.00000000173180663053 0.00000000025021737025 0.00000000000000000000
0.00000000183426504646 0.00000000023624176453 0.00000000000000000000
0.00000000180222455046 0.00000000023317964837 0.00000000000000000000
0.00000000171934623567 0.00000000026539454601 0.00000000000000000000
0.00000000159930589302 0.00000000022065628832 0.00000000000000000000
0.00000000142756312570 0.00000000024636922282 0.00000000000000000000
0.00000000119530058627 0.00000000018937258020 0.00000000000000000000
0.00000000088760005981 0.00000000018222172300 0.00000000000000000000
0.37557676386463045848 0.37594581789380399073 0.00000000000000000000
0.61324970602253814356 0.61261743637151844233 0.00000000000000000000
0.27342612889263073761 0.30334628239805200289 0.00000000000000000000
0.30327531101334009866 0.27371116658930327858 0.00000000000000000000
0.17373461726546030048 0.17396171049724021285 0.00000000000000000000
0.45638313260200480403 0.52623665528908425415 0.00000000000000000000
0.18471231790168032849 0.18931419376992733583 0.00000000000000000000
0.53111690793368915298 0.46136661420816094115 0.00000000000000000000
0.19011786084527931839 0.18514937477004045352 0.00000000000000000000
0.76863554778045883875 0.76832349303927061079 0.00000000000000000000
0.15547208412263080479 0.18886482282276423339 0.00000000000000000000
0.18865101316149410215 0.15547534952489847071 0.00000000000000000000
0.08302280284329290050 0.08322030950413311645 0.00000000000000000000
0.59846508043676061028 0.67625846818377155500 0.00000000000000000000
0.14444893445167117374 0.15079016618671331473 0.00000000000000000000
0.32384292003316256237 0.41806779080160361151 0.00000000000000000000
0.67571410444711743626 0.59796802496386580739 0.00000000000000000000
0.41844544618985324291 0.32379961064285023298 0.00000000000000000000
0.11578378200902980644 0.11897188037567296703 0.00000000000000000000
0.11803455337282332815 0.11472954589274497739 0.00000000000000000000
0.15132905779005842439 0.14531710644339632110 0.00000000000000000000
0.48040740790786795600 0.49441131671482918541 0.00000000000000000000
0.31301721060363990601 0.32516711084759125638 0.00000000000000000000
0.40383999267109482734 0.37981116106290846446 0.00000000000000000000
0.26366765335098713008 0.26239174554025485042 0.00000000000000000000
0.38409912632262654952 0.41216993689156067315 0.00000000000000000000
0.50462584090884365917 0.48227113235873952934 0.00000000000000000000
0.25878111433795880636 0.26060844662900950475 0.00000000000000000000
0.29718290129402880062 0.28685323312958738162 0.00000000000000000000
0.41685245033858397967 0.54362037651831029983 0.00000000000000000000
0.09531506889670500471 0.09884148741438633645 0.00000000000000000000
0.61929111065202557818 0.49819190487020664770 0.00000000000000000000
0.10504569058423536554 0.10119664159849769969 0.00000000000000000000
0.70638844240499820692 0.77944299245692971745 0.00000000000000000000
0.09470479719691259068 0.09992029298246296598 0.00000000000000000000
0.31789131935896020043 0.21545407938474681053 0.00000000000000000000
0.06904582349109691930 0.06683987173936545290 0.00000000000000000000
0.77884360399156182808 0.70690727784679219248 0.00000000000000000000
0.21525075008563931966 0.31607710861891091803 0.00000000000000000000
0.10166482160380552191 0.09624468757915856376 0.00000000000000000000
0.06797626202989683064 0.07026704405782822904 0.00000000000000000000
0.54470087074613271483 0.58533616500211804734 0.00000000000000000000
0.23534826651066612091 0.24626890473019319439 0.00000000000000000000
0.41870540472084954997 0.36638390621391186963 0.00000000000000000000
0.19314006716115003637 0.19028228636627267378 0.00000000000000000000
0.36383690836622267772 0.41652536722201122243 0.00000000000000000000
0.58680140469886332699 0.54444150022473158934 0.00000000000000000000
0.18990746380349735056 0.19285081614620336321 0.00000000000000000000
0.24280882950725440894 0.23252539629385352016 0.00000000000000000000
0.86248397695155643028 0.86218381408782318598 0.00000000000000000000
0.07898532037748326462 0.10855798189408523424 0.00000000000000000000
0.10840589979113120223 0.07892800350484220628 0.00000000000000000000
0.03950199637543702624 0.03956277152282477311 0.00000000000000000000
0.52771962393374827194 0.65903604530745196755 0.00000000000000000000
0.07817250658635663263 0.08068569571914754879 0.00000000000000000000
0.52323006605090238708 0.37907103238633282905 0.00000000000000000000
0.07411897099118347487 0.07105355892462181244 0.00000000000000000000
0.68626785539903900624 0.65777620761843957897 0.00000000000000000000
0.25917214744633054746 0.31136050391229747047 0.00000000000000000000
0.21668095141557883188 0.19774185636640029262 0.00000000000000000000
0.12984125506466942523 0.13185420116365637044 0.00000000000000000000
0.66704807407728494706 0.69608322663590782575 0.00000000000000000000
0.19035187162280500783 0.20938171506874125871 0.00000000000000000000
0.30565691628375590838 0.25196509988076593034 0.00000000000000000000
0.12555444746215735363 0.12342851180853374460 0.00000000000000000000
0.40596810764987789621 0.41839281836847197482 0.00000000000000000000
0.44464470303537012574 0.43889428494947563264 0.00000000000000000000
0.31858335969524581577 0.32237271197155870084 0.00000000000000000000
0.35957876260490734266 0.35008831239550169956 0.00000000000000000000
0.54032371491333264224 0.53735503501516079794 0.00000000000000000000
0.32086849501923492278 0.34523716896104905683 0.00000000000000000000
0.33728963979486509261 0.31591356519454255602 0.00000000000000000000
0.22464632965881509152 0.22504308513430032468 0.00000000000000000000
0.61485299439909057995 0.73559505401550440151 0.00000000000000000000
0.06373506008174067983 0.06624135537513969885 0.00000000000000000000
0.43691682619150190581 0.28895628698116126998 0.00000000000000000000
0.05404406599405112838 0.05191095901251783357 0.00000000000000000000
0.72787666088110225537 0.60810173363261854629 0.00000000000000000000
0.07185193554213969991 0.06930899149033602213 0.00000000000000000000
0.29725451390338508695 0.44203144022797286050 0.00000000000000000000
0.05684731122623834509 0.05916058894689693592 0.00000000000000000000
0.79179732079652476173 0.83888209444632888534 0.00000000000000000000
0.07252806596925036320 0.08290132341342419664 0.00000000000000000000
0.21654031695170233851 0.13419053783579779071 0.00000000000000000000
0.04603199640252914754 0.04434972403896651066 0.00000000000000000000
0.83916856006231521636 0.79154548786156142537 0.00000000000000000000
0.08273776600968928141 0.07256391266803612072 0.00000000000000000000
0.13437938263044343912 0.21669329354706431956 0.00000000000000000000
0.04450160558725716614 0.04633207988740190714 0.00000000000000000000
0.45345395519865167033 0.49019087126679677935 0.00000000000000000000
0.25223510840867846561 0.25809007183091786652 0.00000000000000000000
0.48634801862338028489 0.44463383776673481851 0.00000000000000000000
0.24282949410838941540 0.23718313837595753069 0.00000000000000000000
0.51280168913181256585 0.60237798184301227788 0.00000000000000000000
0.15278261675414492315 0.15758742444515105863 0.00000000000000000000
0.50421808538556189827 0.40776137624225300415 0.00000000000000000000
0.13981673105121378287 0.13563120245471771419 0.00000000000000000000
0.39185650683997763633 0.47682425915595127996 0.00000000000000000000
0.14744598881517256839 0.15205188646237541295 0.00000000000000000000
0.60505323094592633471 0.52672933937860799691 0.00000000000000000000
0.17242743053635314898 0.16733998217699250222 0.00000000000000000000
0.32009340900998067836 0.31888486377928842996 0.00000000000000000000
